 Entering Gaussian System, Link 0=g16
 Initial command:
 /home/kimariyb/g16/l1.exe "/home/kimariyb/g16/scratch/Gau-6010.inp" -scrdir="/home/kimariyb/g16/scratch/"
 Default is to use a total of  10 processors:
                               10 via shared-memory
                                1 via Linda
 Entering Link 1 = /home/kimariyb/g16/l1.exe PID=      6012.
  
 Copyright (c) 1988,1990,1992,1993,1995,1998,2003,2009,2016,
            Gaussian, Inc.  All Rights Reserved.
  
 This is part of the Gaussian(R) 16 program.  It is based on
 the Gaussian(R) 09 system (copyright 2009, Gaussian, Inc.),
 the Gaussian(R) 03 system (copyright 2003, Gaussian, Inc.),
 the Gaussian(R) 98 system (copyright 1998, Gaussian, Inc.),
 the Gaussian(R) 94 system (copyright 1995, Gaussian, Inc.),
 the Gaussian 92(TM) system (copyright 1992, Gaussian, Inc.),
 the Gaussian 90(TM) system (copyright 1990, Gaussian, Inc.),
 the Gaussian 88(TM) system (copyright 1988, Gaussian, Inc.),
 the Gaussian 86(TM) system (copyright 1986, Carnegie Mellon
 University), and the Gaussian 82(TM) system (copyright 1983,
 Carnegie Mellon University). Gaussian is a federally registered
 trademark of Gaussian, Inc.
  
 This software contains proprietary and confidential information,
 including trade secrets, belonging to Gaussian, Inc.
  
 This software is provided under written license and may be
 used, copied, transmitted, or stored only in accord with that
 written license.
  
 The following legend is applicable only to US Government
 contracts under FAR:
  
                    RESTRICTED RIGHTS LEGEND
  
 Use, reproduction and disclosure by the US Government is
 subject to restrictions as set forth in subparagraphs (a)
 and (c) of the Commercial Computer Software - Restricted
 Rights clause in FAR 52.227-19.
  
 Gaussian, Inc.
 340 Quinnipiac St., Bldg. 40, Wallingford CT 06492
  
  
 ---------------------------------------------------------------
 Warning -- This program may not be used in any manner that
 competes with the business of Gaussian, Inc. or will provide
 assistance to any competitor of Gaussian, Inc.  The licensee
 of this program is prohibited from giving any competitor of
 Gaussian, Inc. access to this program.  By using this program,
 the user acknowledges that Gaussian, Inc. is engaged in the
 business of creating and licensing software in the field of
 computational chemistry and represents and warrants to the
 licensee that it is not a competitor of Gaussian, Inc. and that
 it will not use this program in any manner prohibited above.
 ---------------------------------------------------------------
  

 Cite this work as:
 Gaussian 16, Revision A.03,
 M. J. Frisch, G. W. Trucks, H. B. Schlegel, G. E. Scuseria, 
 M. A. Robb, J. R. Cheeseman, G. Scalmani, V. Barone, 
 G. A. Petersson, H. Nakatsuji, X. Li, M. Caricato, A. V. Marenich, 
 J. Bloino, B. G. Janesko, R. Gomperts, B. Mennucci, H. P. Hratchian, 
 J. V. Ortiz, A. F. Izmaylov, J. L. Sonnenberg, D. Williams-Young, 
 F. Ding, F. Lipparini, F. Egidi, J. Goings, B. Peng, A. Petrone, 
 T. Henderson, D. Ranasinghe, V. G. Zakrzewski, J. Gao, N. Rega, 
 G. Zheng, W. Liang, M. Hada, M. Ehara, K. Toyota, R. Fukuda, 
 J. Hasegawa, M. Ishida, T. Nakajima, Y. Honda, O. Kitao, H. Nakai, 
 T. Vreven, K. Throssell, J. A. Montgomery, Jr., J. E. Peralta, 
 F. Ogliaro, M. J. Bearpark, J. J. Heyd, E. N. Brothers, K. N. Kudin, 
 V. N. Staroverov, T. A. Keith, R. Kobayashi, J. Normand, 
 K. Raghavachari, A. P. Rendell, J. C. Burant, S. S. Iyengar, 
 J. Tomasi, M. Cossi, J. M. Millam, M. Klene, C. Adamo, R. Cammi, 
 J. W. Ochterski, R. L. Martin, K. Morokuma, O. Farkas, 
 J. B. Foresman, and D. J. Fox, Gaussian, Inc., Wallingford CT, 2016.
 
 ******************************************
 Gaussian 16:  ES64L-G16RevA.03 25-Dec-2016
                18-Jul-2023 
 ******************************************
 ---------------------------------------------
 # b3lyp/6-311g* opt freq scrf(solvent=ch2cl2)
 ---------------------------------------------
 1/18=20,19=15,26=3,38=1/1,3;
 2/9=110,12=2,17=6,18=5,40=1/2;
 3/5=4,6=6,7=1,11=2,25=1,30=1,70=2201,71=1,72=9,74=-5/1,2,3;
 4//1;
 5/5=2,38=5,53=9/2;
 6/7=2,8=2,9=2,10=2,28=1/1;
 7//1,2,3,16;
 1/18=20,19=15,26=3/3(2);
 2/9=110/2;
 99//99;
 2/9=110/2;
 3/5=4,6=6,7=1,11=2,25=1,30=1,70=2205,71=1,72=9,74=-5/1,2,3;
 4/5=5,16=3,69=1/1;
 5/5=2,38=5,53=9/2;
 7//1,2,3,16;
 1/18=20,19=15,26=3/3(-5);
 2/9=110/2;
 6/7=2,8=2,9=2,10=2,19=2,28=1/1;
 99/9=1/99;
 -------------------
 Title Card Required
 -------------------
 Symbolic Z-matrix:
 Charge =  0 Multiplicity = 1
 C                    -0.94567  -0.16182   0.86689 
 C                     0.36813  -0.227     0.38358 
 C                     0.94822   0.89544  -0.22267 
 C                     0.2145    2.08307  -0.34562 
 C                    -1.0993    2.14826   0.13769 
 C                    -1.67939   1.02581   0.74394 
 H                    -1.38859  -1.01883   1.32977 
 H                     0.92834  -1.13379   0.47744 
 H                     0.65741   2.94008  -0.8085 
 C                     2.39196   0.8238   -0.75378 
 H                     2.38113   0.50108  -1.7739 
 H                     2.84364   1.79174  -0.69069 
 H                     2.95423   0.12882  -0.16578 
 H                    -2.68251   1.07559   1.11296 
 N                    -1.86894   3.39402   0.00873 
 O                    -1.35665   4.38527  -0.52665 
 O                    -3.02918   3.45159   0.43555 
 

 GradGradGradGradGradGradGradGradGradGradGradGradGradGradGradGradGradGrad
 Berny optimization.
 Initialization pass.
                           ----------------------------
                           !    Initial Parameters    !
                           ! (Angstroms and Degrees)  !
 --------------------------                            --------------------------
 ! Name  Definition              Value          Derivative Info.                !
 --------------------------------------------------------------------------------
 ! R1    R(1,2)                  1.4014         estimate D2E/DX2                !
 ! R2    R(1,6)                  1.4014         estimate D2E/DX2                !
 ! R3    R(1,7)                  1.07           estimate D2E/DX2                !
 ! R4    R(2,3)                  1.4014         estimate D2E/DX2                !
 ! R5    R(2,8)                  1.07           estimate D2E/DX2                !
 ! R6    R(3,4)                  1.4014         estimate D2E/DX2                !
 ! R7    R(3,10)                 1.54           estimate D2E/DX2                !
 ! R8    R(4,5)                  1.4014         estimate D2E/DX2                !
 ! R9    R(4,9)                  1.07           estimate D2E/DX2                !
 ! R10   R(5,6)                  1.4014         estimate D2E/DX2                !
 ! R11   R(5,15)                 1.47           estimate D2E/DX2                !
 ! R12   R(6,14)                 1.07           estimate D2E/DX2                !
 ! R13   R(10,11)                1.07           estimate D2E/DX2                !
 ! R14   R(10,12)                1.07           estimate D2E/DX2                !
 ! R15   R(10,13)                1.07           estimate D2E/DX2                !
 ! R16   R(15,16)                1.2376         estimate D2E/DX2                !
 ! R17   R(15,17)                1.2376         estimate D2E/DX2                !
 ! A1    A(2,1,6)              120.0            estimate D2E/DX2                !
 ! A2    A(2,1,7)              120.0            estimate D2E/DX2                !
 ! A3    A(6,1,7)              120.0            estimate D2E/DX2                !
 ! A4    A(1,2,3)              120.0            estimate D2E/DX2                !
 ! A5    A(1,2,8)              120.0            estimate D2E/DX2                !
 ! A6    A(3,2,8)              120.0            estimate D2E/DX2                !
 ! A7    A(2,3,4)              120.0            estimate D2E/DX2                !
 ! A8    A(2,3,10)             120.0            estimate D2E/DX2                !
 ! A9    A(4,3,10)             120.0            estimate D2E/DX2                !
 ! A10   A(3,4,5)              120.0            estimate D2E/DX2                !
 ! A11   A(3,4,9)              120.0            estimate D2E/DX2                !
 ! A12   A(5,4,9)              120.0            estimate D2E/DX2                !
 ! A13   A(4,5,6)              120.0            estimate D2E/DX2                !
 ! A14   A(4,5,15)             120.0            estimate D2E/DX2                !
 ! A15   A(6,5,15)             120.0            estimate D2E/DX2                !
 ! A16   A(1,6,5)              120.0            estimate D2E/DX2                !
 ! A17   A(1,6,14)             120.0            estimate D2E/DX2                !
 ! A18   A(5,6,14)             120.0            estimate D2E/DX2                !
 ! A19   A(3,10,11)            109.4712         estimate D2E/DX2                !
 ! A20   A(3,10,12)            109.4712         estimate D2E/DX2                !
 ! A21   A(3,10,13)            109.4712         estimate D2E/DX2                !
 ! A22   A(11,10,12)           109.4712         estimate D2E/DX2                !
 ! A23   A(11,10,13)           109.4712         estimate D2E/DX2                !
 ! A24   A(12,10,13)           109.4712         estimate D2E/DX2                !
 ! A25   A(5,15,16)            120.0            estimate D2E/DX2                !
 ! A26   A(5,15,17)            120.0            estimate D2E/DX2                !
 ! A27   A(16,15,17)           120.0            estimate D2E/DX2                !
 ! D1    D(6,1,2,3)             -0.0001         estimate D2E/DX2                !
 ! D2    D(6,1,2,8)           -179.9999         estimate D2E/DX2                !
 ! D3    D(7,1,2,3)            179.9999         estimate D2E/DX2                !
 ! D4    D(7,1,2,8)              0.0001         estimate D2E/DX2                !
 ! D5    D(2,1,6,5)              0.0            estimate D2E/DX2                !
 ! D6    D(2,1,6,14)          -180.0            estimate D2E/DX2                !
 ! D7    D(7,1,6,5)           -179.9999         estimate D2E/DX2                !
 ! D8    D(7,1,6,14)             0.0001         estimate D2E/DX2                !
 ! D9    D(1,2,3,4)              0.0001         estimate D2E/DX2                !
 ! D10   D(1,2,3,10)          -179.9999         estimate D2E/DX2                !
 ! D11   D(8,2,3,4)            179.9998         estimate D2E/DX2                !
 ! D12   D(8,2,3,10)            -0.0002         estimate D2E/DX2                !
 ! D13   D(2,3,4,5)              0.0            estimate D2E/DX2                !
 ! D14   D(2,3,4,9)           -179.9999         estimate D2E/DX2                !
 ! D15   D(10,3,4,5)          -180.0            estimate D2E/DX2                !
 ! D16   D(10,3,4,9)             0.0001         estimate D2E/DX2                !
 ! D17   D(2,3,10,11)           90.0            estimate D2E/DX2                !
 ! D18   D(2,3,10,12)         -150.0            estimate D2E/DX2                !
 ! D19   D(2,3,10,13)          -30.0            estimate D2E/DX2                !
 ! D20   D(4,3,10,11)          -90.0            estimate D2E/DX2                !
 ! D21   D(4,3,10,12)           30.0            estimate D2E/DX2                !
 ! D22   D(4,3,10,13)          150.0            estimate D2E/DX2                !
 ! D23   D(3,4,5,6)              0.0            estimate D2E/DX2                !
 ! D24   D(3,4,5,15)           179.9999         estimate D2E/DX2                !
 ! D25   D(9,4,5,6)            179.9999         estimate D2E/DX2                !
 ! D26   D(9,4,5,15)            -0.0001         estimate D2E/DX2                !
 ! D27   D(4,5,6,1)              0.0            estimate D2E/DX2                !
 ! D28   D(4,5,6,14)          -179.9999         estimate D2E/DX2                !
 ! D29   D(15,5,6,1)          -180.0            estimate D2E/DX2                !
 ! D30   D(15,5,6,14)            0.0001         estimate D2E/DX2                !
 ! D31   D(4,5,15,16)           -0.0001         estimate D2E/DX2                !
 ! D32   D(4,5,15,17)         -179.9999         estimate D2E/DX2                !
 ! D33   D(6,5,15,16)          179.9999         estimate D2E/DX2                !
 ! D34   D(6,5,15,17)            0.0001         estimate D2E/DX2                !
 --------------------------------------------------------------------------------
 Trust Radius=3.00D-01 FncErr=1.00D-07 GrdErr=1.00D-06 EigMax=2.50D+02 EigMin=1.00D-04
 Number of steps in this run=     88 maximum allowed number of steps=    102.
 GradGradGradGradGradGradGradGradGradGradGradGradGradGradGradGradGradGrad

                          Input orientation:                          
 ---------------------------------------------------------------------
 Center     Atomic      Atomic             Coordinates (Angstroms)
 Number     Number       Type             X           Y           Z
 ---------------------------------------------------------------------
      1          6           0       -0.945675   -0.161818    0.866886
      2          6           0        0.368131   -0.227005    0.383578
      3          6           0        0.948219    0.895438   -0.222674
      4          6           0        0.214502    2.083069   -0.345616
      5          6           0       -1.099303    2.148257    0.137693
      6          6           0       -1.679391    1.025813    0.743944
      7          1           0       -1.388586   -1.018828    1.329771
      8          1           0        0.928339   -1.133788    0.477444
      9          1           0        0.657412    2.940079   -0.808504
     10          6           0        2.391961    0.823803   -0.753784
     11          1           0        2.381126    0.501076   -1.773896
     12          1           0        2.843644    1.791741   -0.690693
     13          1           0        2.954234    0.128821   -0.165779
     14          1           0       -2.682511    1.075585    1.112961
     15          7           0       -1.868936    3.394023    0.008734
     16          8           0       -1.356649    4.385273   -0.526654
     17          8           0       -3.029179    3.451592    0.435554
 ---------------------------------------------------------------------
                    Distance matrix (angstroms):
                    1          2          3          4          5
     1  C    0.000000
     2  C    1.401400   0.000000
     3  C    2.427296   1.401400   0.000000
     4  C    2.802800   2.427296   1.401400   0.000000
     5  C    2.427296   2.802800   2.427296   1.401400   0.000000
     6  C    1.401400   2.427296   2.802800   2.427296   1.401400
     7  H    1.070000   2.146700   3.396345   3.872800   3.396345
     8  H    2.146700   1.070000   2.146700   3.396345   3.872800
     9  H    3.872800   3.396345   2.146700   1.070000   2.146700
    10  C    3.838989   2.548270   1.540000   2.548270   3.838989
    11  H    4.298926   3.039234   2.148263   3.039234   4.298926
    12  H    4.538874   3.370097   2.148263   2.667646   4.044769
    13  H    4.044769   2.667646   2.148263   3.370097   4.538874
    14  H    2.146700   3.396345   3.872800   3.396345   2.146700
    15  N    3.772644   4.272800   3.772644   2.486942   1.470000
    16  O    4.773561   5.007643   4.193300   2.793105   2.347728
    17  O    4.193300   5.007643   4.773561   3.606182   2.347728
                    6          7          8          9         10
     6  C    0.000000
     7  H    2.146700   0.000000
     8  H    3.396345   2.471400   0.000000
     9  H    3.396345   4.942800   4.280590   0.000000
    10  C    4.342800   4.693509   2.736837   2.736837   0.000000
    11  H    4.806524   5.114058   3.138774   3.138775   1.070000
    12  H    4.806524   5.467480   3.686686   2.472280   1.070000
    13  H    4.806524   4.734327   2.472280   3.686686   1.070000
    14  H    1.070000   2.471400   4.280590   4.280590   5.412800
    15  N    2.486942   4.631321   5.342800   2.693766   5.034154
    16  O    3.606182   5.714161   6.057179   2.494888   5.175686
    17  O    2.793105   4.845186   6.057179   3.924319   6.140730
                   11         12         13         14         15
    11  H    0.000000
    12  H    1.747303   0.000000
    13  H    1.747303   1.747303   0.000000
    14  H    5.856998   5.856999   5.856999   0.000000
    15  N    5.441502   5.026421   5.827089   2.693767   0.000000
    16  O    5.532952   4.939208   6.068881   3.924319   1.237600
    17  O    6.546649   6.205931   6.870490   2.494888   1.237600
                   16         17
    16  O    0.000000
    17  O    2.143586   0.000000
 Stoichiometry    C7H7NO2
 Framework group  C1[X(C7H7NO2)]
 Deg. of freedom    45
 Full point group                 C1      NOp   1
 Largest Abelian subgroup         C1      NOp   1
 Largest concise Abelian subgroup C1      NOp   1
                         Standard orientation:                         
 ---------------------------------------------------------------------
 Center     Atomic      Atomic             Coordinates (Angstroms)
 Number     Number       Type             X           Y           Z
 ---------------------------------------------------------------------
      1          6           0        1.010679    1.915122   -0.000000
      2          6           0        2.048403    0.973288   -0.000001
      3          6           0        1.751612   -0.396324   -0.000000
      4          6           0        0.417098   -0.824102    0.000001
      5          6           0       -0.620626    0.117733    0.000001
      6          6           0       -0.323835    1.487345    0.000000
      7          1           0        1.237286    2.960852    0.000001
      8          1           0        3.067334    1.299906    0.000000
      9          1           0        0.190491   -1.869831    0.000003
     10          6           0        2.891967   -1.431307   -0.000000
     11          1           0        3.156076   -1.671010    1.008806
     12          1           0        2.568923   -2.317942   -0.504402
     13          1           0        3.743227   -1.024080   -0.504404
     14          1           0       -1.116160    2.206456    0.000001
     15          7           0       -2.020466   -0.330985    0.000001
     16          8           0       -2.282567   -1.540513   -0.000001
     17          8           0       -2.936897    0.500765   -0.000000
 ---------------------------------------------------------------------
 Rotational constants (GHZ):           2.6640777           0.9535303           0.7052135
 Standard basis: 6-311G(d) (5D, 7F)
 There are   211 symmetry adapted cartesian basis functions of A   symmetry.
 There are   201 symmetry adapted basis functions of A   symmetry.
   201 basis functions,   355 primitive gaussians,   211 cartesian basis functions
    36 alpha electrons       36 beta electrons
       nuclear repulsion energy       491.3538128941 Hartrees.
 NAtoms=   17 NActive=   17 NUniq=   17 SFac= 1.00D+00 NAtFMM=   60 NAOKFM=F Big=F
 Integral buffers will be    131072 words long.
 Raffenetti 2 integral format.
 Two-electron integral symmetry is turned on.
 ------------------------------------------------------------------------------
 Polarizable Continuum Model (PCM)
 =================================
 Model                : PCM.
 Atomic radii         : UFF (Universal Force Field).
 Polarization charges : Total charges.
 Charge compensation  : None.
 Solution method      : On-the-fly selection.
 Cavity type          : Scaled VdW (van der Waals Surface) (Alpha=1.100).
 Cavity algorithm     : GePol (No added spheres)
                        Default sphere list used, NSphG=   17.
                        Lebedev-Laikov grids with approx.  5.0 points / Ang**2.
                        Smoothing algorithm: York/Karplus (Gamma=1.0000).
                        Polarization charges: spherical gaussians, with
                                              point-specific exponents (IZeta= 3).
                        Self-potential: point-specific (ISelfS= 7).
                        Self-field    : sphere-specific E.n sum rule (ISelfD= 2).
 1st derivatives      : Analytical E(r).r(x)/FMM algorithm (CHGder, D1EAlg=3).
                        Cavity 1st derivative terms included.
 Solvent              : Dichloromethane, Eps=   8.930000 Eps(inf)=   2.028346
 ------------------------------------------------------------------------------
 Spheres list:
 ISph  on   Nord     Re0    Alpha      Xe            Ye            Ze
    1   C      1    1.9255  1.100      1.010679      1.915122     -0.000000
    2   C      2    1.9255  1.100      2.048403      0.973288     -0.000001
    3   C      3    1.9255  1.100      1.751612     -0.396324     -0.000000
    4   C      4    1.9255  1.100      0.417098     -0.824102      0.000001
    5   C      5    1.9255  1.100     -0.620626      0.117733      0.000001
    6   C      6    1.9255  1.100     -0.323835      1.487345      0.000000
    7   H      7    1.4430  1.100      1.237286      2.960852      0.000001
    8   H      8    1.4430  1.100      3.067334      1.299906      0.000000
    9   H      9    1.4430  1.100      0.190491     -1.869831      0.000003
   10   C     10    1.9255  1.100      2.891967     -1.431307     -0.000000
   11   H     11    1.4430  1.100      3.156076     -1.671010      1.008806
   12   H     12    1.4430  1.100      2.568923     -2.317942     -0.504402
   13   H     13    1.4430  1.100      3.743227     -1.024080     -0.504404
   14   H     14    1.4430  1.100     -1.116160      2.206456      0.000001
   15   N     15    1.8300  1.100     -2.020466     -0.330985      0.000001
   16   O     16    1.7500  1.100     -2.282567     -1.540513     -0.000001
   17   O     17    1.7500  1.100     -2.936897      0.500765     -0.000000
 ------------------------------------------------------------------------------
 One-electron integrals computed using PRISM.
 NBasis=   201 RedAO= T EigKep=  1.97D-04  NBF=   201
 NBsUse=   201 1.00D-06 EigRej= -1.00D+00 NBFU=   201
 ExpMin= 1.03D-01 ExpMax= 8.59D+03 ExpMxC= 1.30D+03 IAcc=3 IRadAn=         5 AccDes= 0.00D+00
 Harris functional with IExCor=  402 and IRadAn=       5 diagonalized for initial guess.
 HarFok:  IExCor=  402 AccDes= 0.00D+00 IRadAn=         5 IDoV= 1 UseB2=F ITyADJ=14
 ICtDFT=  3500011 ScaDFX=  1.000000  1.000000  1.000000  1.000000
 FoFCou: FMM=F IPFlag=           0 FMFlag=      100000 FMFlg1=           0
         NFxFlg=           0 DoJE=T BraDBF=F KetDBF=T FulRan=T
         wScrn=  0.000000 ICntrl=       500 IOpCl=  0 I1Cent=   200000004 NGrid=           0
         NMat0=    1 NMatS0=      1 NMatT0=    0 NMatD0=    1 NMtDS0=    0 NMtDT0=    0
 Petite list used in FoFCou.
 Requested convergence on RMS density matrix=1.00D-08 within 128 cycles.
 Requested convergence on MAX density matrix=1.00D-06.
 Requested convergence on             energy=1.00D-06.
 No special actions if energy rises.
 Inv3:  Mode=1 IEnd=     6777027.
 Iteration    1 A*A^-1 deviation from unit magnitude is 3.55D-15 for    379.
 Iteration    1 A*A^-1 deviation from orthogonality  is 1.28D-15 for   1215    944.
 Iteration    1 A^-1*A deviation from unit magnitude is 3.33D-15 for    379.
 Iteration    1 A^-1*A deviation from orthogonality  is 1.99D-15 for   1112    310.
 Error on total polarization charges =  0.00834
 SCF Done:  E(RB3LYP) =  -476.183290231     A.U. after   13 cycles
            NFock= 13  Conv=0.94D-08     -V/T= 2.0036

 **********************************************************************

            Population analysis using the SCF density.

 **********************************************************************

 Orbital symmetries:
       Occupied  (A) (A) (A) (A) (A) (A) (A) (A) (A) (A) (A) (A)
                 (A) (A) (A) (A) (A) (A) (A) (A) (A) (A) (A) (A)
                 (A) (A) (A) (A) (A) (A) (A) (A) (A) (A) (A) (A)
       Virtual   (A) (A) (A) (A) (A) (A) (A) (A) (A) (A) (A) (A)
                 (A) (A) (A) (A) (A) (A) (A) (A) (A) (A) (A) (A)
                 (A) (A) (A) (A) (A) (A) (A) (A) (A) (A) (A) (A)
                 (A) (A) (A) (A) (A) (A) (A) (A) (A) (A) (A) (A)
                 (A) (A) (A) (A) (A) (A) (A) (A) (A) (A) (A) (A)
                 (A) (A) (A) (A) (A) (A) (A) (A) (A) (A) (A) (A)
                 (A) (A) (A) (A) (A) (A) (A) (A) (A) (A) (A) (A)
                 (A) (A) (A) (A) (A) (A) (A) (A) (A) (A) (A) (A)
                 (A) (A) (A) (A) (A) (A) (A) (A) (A) (A) (A) (A)
                 (A) (A) (A) (A) (A) (A) (A) (A) (A) (A) (A) (A)
                 (A) (A) (A) (A) (A) (A) (A) (A) (A) (A) (A) (A)
                 (A) (A) (A) (A) (A) (A) (A) (A) (A) (A) (A) (A)
                 (A) (A) (A) (A) (A) (A) (A) (A) (A) (A) (A) (A)
                 (A) (A) (A) (A) (A) (A) (A) (A) (A)
 The electronic state is 1-A.
 Alpha  occ. eigenvalues --  -19.15732 -19.15715 -14.55827 -10.24694 -10.20725
 Alpha  occ. eigenvalues --  -10.20348 -10.20237 -10.19738 -10.19681 -10.16933
 Alpha  occ. eigenvalues --   -1.23393  -1.05276  -0.89462  -0.82122  -0.78691
 Alpha  occ. eigenvalues --   -0.71790  -0.70459  -0.62527  -0.59361  -0.55996
 Alpha  occ. eigenvalues --   -0.54121  -0.52406  -0.51838  -0.48390  -0.46236
 Alpha  occ. eigenvalues --   -0.43844  -0.42999  -0.40745  -0.38798  -0.38246
 Alpha  occ. eigenvalues --   -0.36396  -0.32801  -0.32082  -0.29939  -0.28555
 Alpha  occ. eigenvalues --   -0.27059
 Alpha virt. eigenvalues --   -0.10513  -0.03085  -0.00865   0.04699   0.06517
 Alpha virt. eigenvalues --    0.08344   0.10243   0.11119   0.12266   0.14422
 Alpha virt. eigenvalues --    0.14596   0.15133   0.18767   0.23534   0.24115
 Alpha virt. eigenvalues --    0.25387   0.26525   0.28504   0.30189   0.32687
 Alpha virt. eigenvalues --    0.34800   0.36562   0.37419   0.37864   0.39217
 Alpha virt. eigenvalues --    0.40919   0.42750   0.43027   0.44678   0.45137
 Alpha virt. eigenvalues --    0.46072   0.46184   0.51120   0.52998   0.53887
 Alpha virt. eigenvalues --    0.55520   0.58321   0.59698   0.59764   0.60526
 Alpha virt. eigenvalues --    0.61370   0.61948   0.62968   0.64392   0.65876
 Alpha virt. eigenvalues --    0.67653   0.70063   0.72234   0.75016   0.75952
 Alpha virt. eigenvalues --    0.77770   0.79871   0.81443   0.81759   0.83929
 Alpha virt. eigenvalues --    0.84616   0.85819   0.87376   0.89533   0.94483
 Alpha virt. eigenvalues --    0.98480   0.99848   1.00876   1.01942   1.05449
 Alpha virt. eigenvalues --    1.12850   1.16723   1.17154   1.18853   1.20259
 Alpha virt. eigenvalues --    1.20710   1.24462   1.32854   1.39450   1.41353
 Alpha virt. eigenvalues --    1.44461   1.46550   1.48837   1.51945   1.53116
 Alpha virt. eigenvalues --    1.53839   1.56638   1.59728   1.65492   1.65827
 Alpha virt. eigenvalues --    1.67885   1.70056   1.78318   1.78872   1.81285
 Alpha virt. eigenvalues --    1.82079   1.88752   1.89732   1.91973   1.93016
 Alpha virt. eigenvalues --    1.95342   2.03514   2.10873   2.13230   2.14509
 Alpha virt. eigenvalues --    2.23391   2.25050   2.25731   2.28289   2.29983
 Alpha virt. eigenvalues --    2.36204   2.37194   2.39677   2.44940   2.51459
 Alpha virt. eigenvalues --    2.51546   2.57906   2.63920   2.65629   2.67777
 Alpha virt. eigenvalues --    2.68693   2.77219   2.78532   2.79246   2.81745
 Alpha virt. eigenvalues --    2.82567   2.85145   2.87688   3.00705   3.02611
 Alpha virt. eigenvalues --    3.09851   3.10520   3.16872   3.18718   3.19722
 Alpha virt. eigenvalues --    3.21033   3.26721   3.27840   3.28447   3.32173
 Alpha virt. eigenvalues --    3.35042   3.40905   3.48662   3.54175   3.59969
 Alpha virt. eigenvalues --    3.61712   3.70283   3.70839   3.83192   3.92590
 Alpha virt. eigenvalues --    4.06165   4.39380   4.56798   4.75830   4.79837
 Alpha virt. eigenvalues --    4.82406   4.89145   4.95241   5.54732   5.98353
 Alpha virt. eigenvalues --   23.18936  23.55834  23.77586  23.78196  23.98002
 Alpha virt. eigenvalues --   23.99557  24.08827  35.33672  49.79090  49.92939
          Condensed to atoms (all electrons):
               1          2          3          4          5          6
     1  C    4.956303   0.522784  -0.035146  -0.037102  -0.031416   0.495937
     2  C    0.522784   4.980369   0.528140  -0.066508  -0.045221  -0.047738
     3  C   -0.035146   0.528140   4.930666   0.486266  -0.021249  -0.042484
     4  C   -0.037102  -0.066508   0.486266   5.145488   0.442682  -0.085050
     5  C   -0.031416  -0.045221  -0.021249   0.442682   5.121779   0.426646
     6  C    0.495937  -0.047738  -0.042484  -0.085050   0.426646   5.108655
     7  H    0.399399  -0.041538   0.005921  -0.000597   0.006210  -0.038657
     8  H   -0.039687   0.396190  -0.042536   0.006678  -0.000756   0.006410
     9  H   -0.001032   0.006509  -0.025840   0.371427  -0.044860   0.005885
    10  C    0.004772  -0.056915   0.313839  -0.051531   0.003535   0.000557
    11  H   -0.000259  -0.002549  -0.034744  -0.002928  -0.000285   0.000060
    12  H   -0.000198   0.004639  -0.044245  -0.004383   0.001131  -0.000034
    13  H    0.000564  -0.006086  -0.043220   0.005306  -0.000144   0.000020
    14  H   -0.028769   0.005965  -0.000967   0.006450  -0.047349   0.380021
    15  N    0.003147   0.000216   0.002496  -0.031437   0.214570  -0.031727
    16  O   -0.000123   0.000087   0.001360   0.019545  -0.131138   0.008327
    17  O    0.000941   0.000066  -0.000109   0.008675  -0.131508   0.020101
               7          8          9         10         11         12
     1  C    0.399399  -0.039687  -0.001032   0.004772  -0.000259  -0.000198
     2  C   -0.041538   0.396190   0.006509  -0.056915  -0.002549   0.004639
     3  C    0.005921  -0.042536  -0.025840   0.313839  -0.034744  -0.044245
     4  C   -0.000597   0.006678   0.371427  -0.051531  -0.002928  -0.004383
     5  C    0.006210  -0.000756  -0.044860   0.003535  -0.000285   0.001131
     6  C   -0.038657   0.006410   0.005885   0.000557   0.000060  -0.000034
     7  H    0.449482  -0.005284   0.000062  -0.000358   0.000014   0.000017
     8  H   -0.005284   0.452370  -0.000202  -0.004930   0.000339  -0.000011
     9  H    0.000062  -0.000202   0.431552  -0.006205   0.000350   0.001281
    10  C   -0.000358  -0.004930  -0.006205   5.300899   0.379096   0.394525
    11  H    0.000014   0.000339   0.000350   0.379096   0.463683  -0.024145
    12  H    0.000017  -0.000011   0.001281   0.394525  -0.024145   0.461513
    13  H   -0.000019   0.001875   0.000055   0.394691  -0.024686  -0.026441
    14  H   -0.006306  -0.000197  -0.000377   0.000046  -0.000001  -0.000001
    15  N   -0.000116   0.000018  -0.007357  -0.000115   0.000004  -0.000015
    16  O    0.000002   0.000001   0.024812  -0.000030  -0.000002  -0.000045
    17  O   -0.000062   0.000001   0.000853   0.000000  -0.000000  -0.000000
              13         14         15         16         17
     1  C    0.000564  -0.028769   0.003147  -0.000123   0.000941
     2  C   -0.006086   0.005965   0.000216   0.000087   0.000066
     3  C   -0.043220  -0.000967   0.002496   0.001360  -0.000109
     4  C    0.005306   0.006450  -0.031437   0.019545   0.008675
     5  C   -0.000144  -0.047349   0.214570  -0.131138  -0.131508
     6  C    0.000020   0.380021  -0.031727   0.008327   0.020101
     7  H   -0.000019  -0.006306  -0.000116   0.000002  -0.000062
     8  H    0.001875  -0.000197   0.000018   0.000001   0.000001
     9  H    0.000055  -0.000377  -0.007357   0.024812   0.000853
    10  C    0.394691   0.000046  -0.000115  -0.000030   0.000000
    11  H   -0.024686  -0.000001   0.000004  -0.000002  -0.000000
    12  H   -0.026441  -0.000001  -0.000015  -0.000045  -0.000000
    13  H    0.462256  -0.000001   0.000002  -0.000000  -0.000000
    14  H   -0.000001   0.431103  -0.008024   0.000786   0.023064
    15  N    0.000002  -0.008024   6.076792   0.317169   0.319001
    16  O   -0.000000   0.000786   0.317169   8.186479  -0.131343
    17  O   -0.000000   0.023064   0.319001  -0.131343   8.186211
 Mulliken charges:
               1
     1  C   -0.210115
     2  C   -0.178411
     3  C    0.021853
     4  C   -0.212981
     5  C    0.237372
     6  C   -0.206930
     7  H    0.231829
     8  H    0.229721
     9  H    0.243088
    10  C   -0.671878
    11  H    0.246055
    12  H    0.236413
    13  H    0.235829
    14  H    0.244557
    15  N    0.145376
    16  O   -0.295887
    17  O   -0.295892
 Sum of Mulliken charges =  -0.00000
 Mulliken charges with hydrogens summed into heavy atoms:
               1
     1  C    0.021713
     2  C    0.051310
     3  C    0.021853
     4  C    0.030107
     5  C    0.237372
     6  C    0.037628
    10  C    0.046420
    15  N    0.145376
    16  O   -0.295887
    17  O   -0.295892
 Electronic spatial extent (au):  <R**2>=           1544.1114
 Charge=             -0.0000 electrons
 Dipole moment (field-independent basis, Debye):
    X=              6.2811    Y=              1.5170    Z=              0.0267  Tot=              6.4618
 Quadrupole moment (field-independent basis, Debye-Ang):
   XX=            -63.9135   YY=            -53.7062   ZZ=            -59.0821
   XY=             -2.3618   XZ=              0.0632   YZ=             -0.0247
 Traceless Quadrupole moment (field-independent basis, Debye-Ang):
   XX=             -5.0129   YY=              5.1944   ZZ=             -0.1815
   XY=             -2.3618   XZ=              0.0632   YZ=             -0.0247
 Octapole moment (field-independent basis, Debye-Ang**2):
  XXX=             47.1823  YYY=             11.6789  ZZZ=              0.7299  XYY=              8.9814
  XXY=              5.4015  XXZ=             -0.1484  XZZ=            -10.8978  YZZ=             -5.0729
  YYZ=             -0.3303  XYZ=             -0.3896
 Hexadecapole moment (field-independent basis, Debye-Ang**3):
 XXXX=          -1420.1037 YYYY=           -514.9997 ZZZZ=            -66.3457 XXXY=             10.6900
 XXXZ=             -2.5694 YYYX=              0.1505 YYYZ=              1.9309 ZZZX=              2.3111
 ZZZY=             -1.2243 XXYY=           -325.3036 XXZZ=           -233.1635 YYZZ=           -109.6696
 XXYZ=             -1.7654 YYXZ=              0.0437 ZZXY=             -0.6623
 N-N= 4.913538128941D+02 E-N=-2.094485313128D+03  KE= 4.744937627737D+02
 D1PCM: PCM CHGder 1st derivatives, ID1Alg=3 FixD1E=F DoIter=F DoCFld=F I1PDM=0.
 Calling FoFJK, ICntrl=      2127 FMM=F ISym2X=0 I1Cent= 0 IOpClX= 0 NMat=1 NMatS=1 NMatT=0.
 ***** Axes restored to original set *****
 -------------------------------------------------------------------
 Center     Atomic                   Forces (Hartrees/Bohr)
 Number     Number              X              Y              Z
 -------------------------------------------------------------------
      1        6           0.007216438    0.016758398   -0.008961986
      2        6          -0.014778774    0.015756795   -0.000074366
      3        6           0.012732293    0.001490824   -0.004289624
      4        6          -0.006833792   -0.007856912    0.005019366
      5        6           0.007026159   -0.012017763    0.000922802
      6        6           0.005454540   -0.001678649   -0.001579121
      7        1          -0.005146546   -0.006945407    0.004461467
      8        1           0.005595974   -0.008665471    0.001091338
      9        1           0.002798339    0.007971370   -0.003470681
     10        6          -0.031747704    0.003468940    0.013526258
     11        1           0.002680481   -0.004632402   -0.015134403
     12        1           0.008665833    0.011814489   -0.001036916
     13        1           0.009718137   -0.009110275    0.005823424
     14        1          -0.008237617    0.001728095    0.002727169
     15        7          -0.015654704    0.024830631   -0.002321792
     16        8           0.009313556   -0.017089283    0.002227939
     17        8           0.011197387   -0.015823379    0.001069125
 -------------------------------------------------------------------
 Cartesian Forces:  Max     0.031747704 RMS     0.010199301

 GradGradGradGradGradGradGradGradGradGradGradGradGradGradGradGradGradGrad
 Berny optimization.
 FormGI is forming the generalized inverse of G from B-inverse, IUseBI=4.
 Internal  Forces:  Max     0.025286010 RMS     0.006441619
 Search for a local minimum.
 Step number   1 out of a maximum of   88
 All quantities printed in internal units (Hartrees-Bohrs-Radians)
 Mixed Optimization -- RFO/linear search
 Second derivative matrix not updated -- first step.
 ITU=  0
     Eigenvalues ---    0.00237   0.00766   0.00766   0.01336   0.01671
     Eigenvalues ---    0.02070   0.02070   0.02070   0.02070   0.02070
     Eigenvalues ---    0.02070   0.02070   0.07243   0.07243   0.16000
     Eigenvalues ---    0.16000   0.16000   0.16000   0.16000   0.16000
     Eigenvalues ---    0.16000   0.22000   0.23478   0.23493   0.25000
     Eigenvalues ---    0.25000   0.25000   0.25000   0.28519   0.35740
     Eigenvalues ---    0.37230   0.37230   0.37230   0.37230   0.37230
     Eigenvalues ---    0.37230   0.37230   0.41364   0.41554   0.45389
     Eigenvalues ---    0.45389   0.45389   0.45389   0.87992   0.87992
 RFO step:  Lambda=-1.00231085D-02 EMin= 2.36824244D-03
 Linear search not attempted -- first point.
 Iteration  1 RMS(Cart)=  0.03582686 RMS(Int)=  0.00052141
 Iteration  2 RMS(Cart)=  0.00055751 RMS(Int)=  0.00006910
 Iteration  3 RMS(Cart)=  0.00000010 RMS(Int)=  0.00006910
 Variable       Old X    -DE/DX   Delta X   Delta X   Delta X     New X
                                 (Linear)    (Quad)   (Total)
    R1        2.64826  -0.00394   0.00000  -0.00850  -0.00855   2.63971
    R2        2.64826  -0.01188   0.00000  -0.02581  -0.02582   2.62244
    R3        2.02201   0.00962   0.00000   0.02517   0.02517   2.04718
    R4        2.64826  -0.00113   0.00000  -0.00223  -0.00228   2.64599
    R5        2.02201   0.01037   0.00000   0.02712   0.02712   2.04913
    R6        2.64826  -0.00807   0.00000  -0.01720  -0.01719   2.63108
    R7        2.91018  -0.01118   0.00000  -0.03788  -0.03788   2.87230
    R8        2.64826  -0.00750   0.00000  -0.01617  -0.01612   2.63214
    R9        2.02201   0.00904   0.00000   0.02366   0.02366   2.04566
   R10        2.64826  -0.00936   0.00000  -0.02038  -0.02034   2.62792
   R11        2.77790  -0.00948   0.00000  -0.02580  -0.02580   2.75210
   R12        2.02201   0.00874   0.00000   0.02287   0.02287   2.04488
   R13        2.02201   0.01580   0.00000   0.04132   0.04132   2.06333
   R14        2.02201   0.01429   0.00000   0.03737   0.03737   2.05937
   R15        2.02201   0.01422   0.00000   0.03720   0.03720   2.05921
   R16        2.33873  -0.01080   0.00000  -0.01213  -0.01213   2.32659
   R17        2.33873  -0.01086   0.00000  -0.01221  -0.01221   2.32652
    A1        2.09440   0.00094   0.00000   0.00408   0.00402   2.09841
    A2        2.09440   0.00096   0.00000   0.00639   0.00642   2.10081
    A3        2.09440  -0.00190   0.00000  -0.01047  -0.01044   2.08396
    A4        2.09440   0.00470   0.00000   0.02129   0.02120   2.11559
    A5        2.09440  -0.00225   0.00000  -0.01003  -0.00998   2.08441
    A6        2.09440  -0.00246   0.00000  -0.01126  -0.01121   2.08318
    A7        2.09440  -0.00635   0.00000  -0.02330  -0.02336   2.07104
    A8        2.09440   0.00456   0.00000   0.01698   0.01696   2.11135
    A9        2.09440   0.00179   0.00000   0.00633   0.00631   2.10070
   A10        2.09440  -0.00284   0.00000  -0.01151  -0.01144   2.08295
   A11        2.09440   0.00267   0.00000   0.01313   0.01309   2.10749
   A12        2.09440   0.00017   0.00000  -0.00162  -0.00165   2.09274
   A13        2.09440   0.01100   0.00000   0.04230   0.04240   2.13680
   A14        2.09440  -0.00556   0.00000  -0.02136  -0.02141   2.07298
   A15        2.09440  -0.00545   0.00000  -0.02094  -0.02099   2.07340
   A16        2.09440  -0.00746   0.00000  -0.03286  -0.03282   2.06157
   A17        2.09440   0.00509   0.00000   0.02443   0.02441   2.11880
   A18        2.09440   0.00237   0.00000   0.00843   0.00841   2.10281
   A19        1.91063   0.00251   0.00000   0.01325   0.01313   1.92376
   A20        1.91063   0.00374   0.00000   0.02297   0.02275   1.93339
   A21        1.91063   0.00301   0.00000   0.01826   0.01806   1.92869
   A22        1.91063  -0.00334   0.00000  -0.02071  -0.02085   1.88978
   A23        1.91063  -0.00315   0.00000  -0.02045  -0.02055   1.89009
   A24        1.91063  -0.00277   0.00000  -0.01331  -0.01360   1.89704
   A25        2.09440  -0.01294   0.00000  -0.04976  -0.04977   2.04463
   A26        2.09440  -0.01235   0.00000  -0.04748  -0.04748   2.04691
   A27        2.09440   0.02529   0.00000   0.09725   0.09724   2.19164
    D1       -0.00000  -0.00004   0.00000  -0.00056  -0.00059  -0.00059
    D2       -3.14159  -0.00005   0.00000  -0.00108  -0.00109   3.14051
    D3        3.14159   0.00006   0.00000   0.00234   0.00233  -3.13927
    D4        0.00000   0.00005   0.00000   0.00182   0.00182   0.00182
    D5        0.00000   0.00002   0.00000   0.00114   0.00111   0.00111
    D6       -3.14159   0.00010   0.00000   0.00315   0.00315  -3.13844
    D7       -3.14159  -0.00007   0.00000  -0.00175  -0.00177   3.13982
    D8        0.00000   0.00000   0.00000   0.00026   0.00027   0.00027
    D9        0.00000   0.00005   0.00000   0.00010   0.00015   0.00015
   D10       -3.14159   0.00038   0.00000   0.01421   0.01419  -3.12740
   D11        3.14159   0.00006   0.00000   0.00062   0.00065  -3.14094
   D12       -0.00000   0.00039   0.00000   0.01473   0.01469   0.01469
   D13        0.00000  -0.00005   0.00000  -0.00022  -0.00027  -0.00027
   D14       -3.14159  -0.00007   0.00000  -0.00094  -0.00099   3.14060
   D15       -3.14159  -0.00038   0.00000  -0.01433  -0.01422   3.12737
   D16        0.00000  -0.00040   0.00000  -0.01505  -0.01494  -0.01494
   D17        1.57080  -0.00027   0.00000  -0.01085  -0.01095   1.55985
   D18       -2.61799  -0.00054   0.00000  -0.01404  -0.01418  -2.63217
   D19       -0.52360   0.00020   0.00000  -0.00509  -0.00510  -0.52870
   D20       -1.57080   0.00006   0.00000   0.00326   0.00333  -1.56747
   D21        0.52360  -0.00020   0.00000   0.00007   0.00010   0.52370
   D22        2.61799   0.00053   0.00000   0.00902   0.00918   2.62717
   D23       -0.00000   0.00004   0.00000   0.00080   0.00085   0.00085
   D24        3.14159  -0.00003   0.00000  -0.00170  -0.00169   3.13990
   D25        3.14159   0.00005   0.00000   0.00152   0.00157  -3.14003
   D26       -0.00000  -0.00002   0.00000  -0.00098  -0.00098  -0.00098
   D27        0.00000  -0.00002   0.00000  -0.00126  -0.00127  -0.00127
   D28       -3.14159  -0.00010   0.00000  -0.00327  -0.00329   3.13831
   D29       -3.14159   0.00005   0.00000   0.00124   0.00128  -3.14032
   D30        0.00000  -0.00003   0.00000  -0.00077  -0.00074  -0.00074
   D31       -0.00000   0.00005   0.00000   0.00230   0.00228   0.00227
   D32       -3.14159   0.00002   0.00000   0.00011   0.00008  -3.14151
   D33        3.14159  -0.00002   0.00000  -0.00020  -0.00017   3.14142
   D34        0.00000  -0.00006   0.00000  -0.00239  -0.00236  -0.00236
         Item               Value     Threshold  Converged?
 Maximum Force            0.025286     0.000450     NO 
 RMS     Force            0.006442     0.000300     NO 
 Maximum Displacement     0.156141     0.001800     NO 
 RMS     Displacement     0.035910     0.001200     NO 
 Predicted change in Energy=-5.187719D-03
 GradGradGradGradGradGradGradGradGradGradGradGradGradGradGradGradGradGrad

                          Input orientation:                          
 ---------------------------------------------------------------------
 Center     Atomic      Atomic             Coordinates (Angstroms)
 Number     Number       Type             X           Y           Z
 ---------------------------------------------------------------------
      1          6           0       -0.961105   -0.139378    0.863346
      2          6           0        0.350592   -0.197269    0.386531
      3          6           0        0.952302    0.912721   -0.218792
      4          6           0        0.216083    2.088247   -0.339761
      5          6           0       -1.090524    2.127888    0.141167
      6          6           0       -1.696743    1.031305    0.744387
      7          1           0       -1.412449   -1.005881    1.331366
      8          1           0        0.913885   -1.118354    0.487145
      9          1           0        0.648242    2.966972   -0.801201
     10          6           0        2.373643    0.838059   -0.752157
     11          1           0        2.369508    0.505961   -1.792286
     12          1           0        2.855200    1.814625   -0.707120
     13          1           0        2.963303    0.130712   -0.169596
     14          1           0       -2.713129    1.098033    1.109696
     15          7           0       -1.848532    3.364496    0.010101
     16          8           0       -1.282458    4.316029   -0.528367
     17          8           0       -3.000478    3.368966    0.444505
 ---------------------------------------------------------------------
                    Distance matrix (angstroms):
                    1          2          3          4          5
     1  C    0.000000
     2  C    1.396873   0.000000
     3  C    2.437019   1.400195   0.000000
     4  C    2.792052   2.401910   1.392305   0.000000
     5  C    2.383021   2.746521   2.404026   1.392870   0.000000
     6  C    1.387737   2.414339   2.821208   2.439550   1.390636
     7  H    1.083320   2.157517   3.417027   3.875360   3.367599
     8  H    2.148374   1.084353   2.150602   3.384227   3.830855
     9  H    3.874290   3.392893   2.156757   1.082518   2.148354
    10  C    3.832203   2.541899   1.519955   2.527470   3.802913
    11  H    4.308344   3.052507   2.156342   3.041496   4.282606
    12  H    4.566035   3.393648   2.161692   2.678574   4.048019
    13  H    4.067050   2.691302   2.158259   3.377590   4.529769
    14  H    2.159042   3.403992   3.903153   3.414928   2.152091
    15  N    3.713851   4.202858   3.729379   2.452316   1.456349
    16  O    4.678759   4.886077   4.083197   2.691508   2.296318
    17  O    4.079577   4.893982   4.700806   3.549871   2.297871
                    6          7          8          9         10
     6  C    0.000000
     7  H    2.139041   0.000000
     8  H    3.391546   2.477335   0.000000
     9  H    3.410953   4.957605   4.291887   0.000000
    10  C    4.341086   4.698477   2.737576   2.740745   0.000000
    11  H    4.821316   5.132842   3.154845   3.162528   1.091867
    12  H    4.841553   5.506678   3.714477   2.491469   1.089773
    13  H    4.833473   4.763606   2.488291   3.715212   1.089686
    14  H    1.082102   2.483417   4.295948   4.294563   5.423037
    15  N    2.450713   4.586514   5.287198   2.655205   4.979025
    16  O    3.546963   5.638993   5.948757   2.371075   5.051082
    17  O    2.693383   4.737895   5.954838   3.876408   6.059593
                   11         12         13         14         15
    11  H    0.000000
    12  H    1.768074   0.000000
    13  H    1.768198   1.770927   0.000000
    14  H    5.882622   5.900899   5.898659   0.000000
    15  N    5.404784   5.004158   5.800294   2.663361   0.000000
    16  O    5.426875   4.838304   5.972611   3.884014   1.231179
    17  O    6.483578   6.166942   6.813963   2.383733   1.231140
                   16         17
    16  O    0.000000
    17  O    2.189749   0.000000
 Stoichiometry    C7H7NO2
 Framework group  C1[X(C7H7NO2)]
 Deg. of freedom    45
 Full point group                 C1      NOp   1
 Largest Abelian subgroup         C1      NOp   1
 Largest concise Abelian subgroup C1      NOp   1
                         Standard orientation:                         
 ---------------------------------------------------------------------
 Center     Atomic      Atomic             Coordinates (Angstroms)
 Number     Number       Type             X           Y           Z
 ---------------------------------------------------------------------
      1          6           0        0.934982    1.920746    0.000672
      2          6           0        1.983212    0.997468   -0.004245
      3          6           0        1.736241   -0.380772   -0.007077
      4          6           0        0.415909   -0.822624   -0.005082
      5          6           0       -0.616701    0.112137   -0.000025
      6          6           0       -0.381836    1.482795    0.002148
      7          1           0        1.141795    2.984142    0.000645
      8          1           0        3.007255    1.354051   -0.006372
      9          1           0        0.186268   -1.880500   -0.008081
     10          6           0        2.880998   -1.380583    0.006069
     11          1           0        3.160881   -1.620406    1.033846
     12          1           0        2.592731   -2.304852   -0.494167
     13          1           0        3.754066   -0.967892   -0.498761
     14          1           0       -1.208276    2.181321    0.003027
     15          7           0       -1.993093   -0.363781   -0.000144
     16          8           0       -2.166030   -1.582752   -0.002285
     17          8           0       -2.883957    0.485953    0.004299
 ---------------------------------------------------------------------
 Rotational constants (GHZ):           2.6521542           0.9923097           0.7253922
 Standard basis: 6-311G(d) (5D, 7F)
 There are   211 symmetry adapted cartesian basis functions of A   symmetry.
 There are   201 symmetry adapted basis functions of A   symmetry.
   201 basis functions,   355 primitive gaussians,   211 cartesian basis functions
    36 alpha electrons       36 beta electrons
       nuclear repulsion energy       495.3961543276 Hartrees.
 NAtoms=   17 NActive=   17 NUniq=   17 SFac= 1.00D+00 NAtFMM=   60 NAOKFM=F Big=F
 Integral buffers will be    131072 words long.
 Raffenetti 2 integral format.
 Two-electron integral symmetry is turned on.
 ------------------------------------------------------------------------------
 Polarizable Continuum Model (PCM)
 =================================
 Model                : PCM.
 Atomic radii         : UFF (Universal Force Field).
 Polarization charges : Total charges.
 Charge compensation  : None.
 Solution method      : On-the-fly selection.
 Cavity type          : Scaled VdW (van der Waals Surface) (Alpha=1.100).
 Cavity algorithm     : GePol (No added spheres)
                        Default sphere list used, NSphG=   17.
                        Lebedev-Laikov grids with approx.  5.0 points / Ang**2.
                        Smoothing algorithm: York/Karplus (Gamma=1.0000).
                        Polarization charges: spherical gaussians, with
                                              point-specific exponents (IZeta= 3).
                        Self-potential: point-specific (ISelfS= 7).
                        Self-field    : sphere-specific E.n sum rule (ISelfD= 2).
 1st derivatives      : Analytical E(r).r(x)/FMM algorithm (CHGder, D1EAlg=3).
                        Cavity 1st derivative terms included.
 Solvent              : Dichloromethane, Eps=   8.930000 Eps(inf)=   2.028346
 ------------------------------------------------------------------------------
 Spheres list:
 ISph  on   Nord     Re0    Alpha      Xe            Ye            Ze
    1   C      1    1.9255  1.100      0.934982      1.920746      0.000672
    2   C      2    1.9255  1.100      1.983212      0.997468     -0.004245
    3   C      3    1.9255  1.100      1.736241     -0.380772     -0.007077
    4   C      4    1.9255  1.100      0.415909     -0.822624     -0.005082
    5   C      5    1.9255  1.100     -0.616701      0.112137     -0.000025
    6   C      6    1.9255  1.100     -0.381836      1.482795      0.002148
    7   H      7    1.4430  1.100      1.141795      2.984142      0.000645
    8   H      8    1.4430  1.100      3.007255      1.354051     -0.006372
    9   H      9    1.4430  1.100      0.186268     -1.880500     -0.008081
   10   C     10    1.9255  1.100      2.880998     -1.380583      0.006069
   11   H     11    1.4430  1.100      3.160881     -1.620406      1.033846
   12   H     12    1.4430  1.100      2.592731     -2.304852     -0.494167
   13   H     13    1.4430  1.100      3.754066     -0.967892     -0.498761
   14   H     14    1.4430  1.100     -1.208276      2.181321      0.003027
   15   N     15    1.8300  1.100     -1.993093     -0.363781     -0.000144
   16   O     16    1.7500  1.100     -2.166030     -1.582752     -0.002285
   17   O     17    1.7500  1.100     -2.883957      0.485953      0.004299
 ------------------------------------------------------------------------------
 One-electron integrals computed using PRISM.
 NBasis=   201 RedAO= T EigKep=  1.88D-04  NBF=   201
 NBsUse=   201 1.00D-06 EigRej= -1.00D+00 NBFU=   201
 Initial guess from the checkpoint file:  "/home/kimariyb/g16/scratch/Gau-6012.chk"
 B after Tr=     0.000000   -0.000000   -0.000000
         Rot=    0.999958    0.000157    0.000043   -0.009208 Ang=   1.06 deg.
 ExpMin= 1.03D-01 ExpMax= 8.59D+03 ExpMxC= 1.30D+03 IAcc=2 IRadAn=         4 AccDes= 0.00D+00
 Harris functional with IExCor=  402 and IRadAn=       4 diagonalized for initial guess.
 HarFok:  IExCor=  402 AccDes= 0.00D+00 IRadAn=         4 IDoV= 1 UseB2=F ITyADJ=14
 ICtDFT=  3500011 ScaDFX=  1.000000  1.000000  1.000000  1.000000
 FoFCou: FMM=F IPFlag=           0 FMFlag=      100000 FMFlg1=           0
         NFxFlg=           0 DoJE=T BraDBF=F KetDBF=T FulRan=T
         wScrn=  0.000000 ICntrl=       500 IOpCl=  0 I1Cent=   200000004 NGrid=           0
         NMat0=    1 NMatS0=      1 NMatT0=    0 NMatD0=    1 NMtDS0=    0 NMtDT0=    0
 Petite list used in FoFCou.
 Requested convergence on RMS density matrix=1.00D-08 within 128 cycles.
 Requested convergence on MAX density matrix=1.00D-06.
 Requested convergence on             energy=1.00D-06.
 No special actions if energy rises.
 Inv3:  Mode=1 IEnd=     6705075.
 Iteration    1 A*A^-1 deviation from unit magnitude is 3.77D-15 for   1109.
 Iteration    1 A*A^-1 deviation from orthogonality  is 1.78D-15 for   1317    154.
 Iteration    1 A^-1*A deviation from unit magnitude is 3.55D-15 for   1109.
 Iteration    1 A^-1*A deviation from orthogonality  is 1.37D-15 for   1143    367.
 Error on total polarization charges =  0.00848
 SCF Done:  E(RB3LYP) =  -476.187331008     A.U. after   11 cycles
            NFock= 11  Conv=0.60D-08     -V/T= 2.0034
 D1PCM: PCM CHGder 1st derivatives, ID1Alg=3 FixD1E=F DoIter=F DoCFld=F I1PDM=0.
 Calling FoFJK, ICntrl=      2127 FMM=F ISym2X=0 I1Cent= 0 IOpClX= 0 NMat=1 NMatS=1 NMatT=0.
 ***** Axes restored to original set *****
 -------------------------------------------------------------------
 Center     Atomic                   Forces (Hartrees/Bohr)
 Number     Number              X              Y              Z
 -------------------------------------------------------------------
      1        6           0.002729629   -0.000817010   -0.000883389
      2        6          -0.002797323    0.000396556    0.000757837
      3        6           0.007245035   -0.001506672   -0.002087523
      4        6          -0.000971310   -0.000538319    0.000481290
      5        6           0.003793940   -0.004537107    0.000042586
      6        6          -0.001447003   -0.001208054    0.000930710
      7        1           0.000445882   -0.000804445    0.000129325
      8        1           0.000380643   -0.000581750    0.000256450
      9        1          -0.000847133   -0.000140437    0.000553259
     10        6          -0.008662897    0.000306765    0.004376564
     11        1           0.001437824   -0.000426106   -0.001383308
     12        1           0.001365181    0.000362435   -0.000802900
     13        1           0.001834914   -0.000662644   -0.000600394
     14        1           0.000933453    0.000524558   -0.000509170
     15        7          -0.000466663    0.001156119   -0.000479141
     16        8          -0.010359079    0.000208522    0.003968185
     17        8           0.005384908    0.008267591   -0.004750381
 -------------------------------------------------------------------
 Cartesian Forces:  Max     0.010359079 RMS     0.003040136

 GradGradGradGradGradGradGradGradGradGradGradGradGradGradGradGradGradGrad
 Berny optimization.
 Using GEDIIS/GDIIS optimizer.
 FormGI is forming the generalized inverse of G from B-inverse, IUseBI=4.
 Internal  Forces:  Max     0.013788781 RMS     0.002717615
 Search for a local minimum.
 Step number   2 out of a maximum of   88
 All quantities printed in internal units (Hartrees-Bohrs-Radians)
 Mixed Optimization -- RFO/linear search
 Update second derivatives using D2CorX and points    1    2
 DE= -4.04D-03 DEPred=-5.19D-03 R= 7.79D-01
 TightC=F SS=  1.41D+00  RLast= 1.87D-01 DXNew= 5.0454D-01 5.6204D-01
 Trust test= 7.79D-01 RLast= 1.87D-01 DXMaxT set to 5.05D-01
 ITU=  1  0
 Use linear search instead of GDIIS.
     Eigenvalues ---    0.00237   0.00766   0.00766   0.01321   0.01689
     Eigenvalues ---    0.02069   0.02070   0.02070   0.02070   0.02070
     Eigenvalues ---    0.02070   0.02070   0.06985   0.07074   0.15262
     Eigenvalues ---    0.16000   0.16000   0.16000   0.16000   0.16000
     Eigenvalues ---    0.16020   0.21949   0.22670   0.23559   0.24996
     Eigenvalues ---    0.24998   0.25000   0.27425   0.30907   0.34182
     Eigenvalues ---    0.37186   0.37230   0.37230   0.37230   0.37230
     Eigenvalues ---    0.37230   0.40422   0.41449   0.42724   0.45245
     Eigenvalues ---    0.45389   0.45389   0.49058   0.86459   0.87993
 RFO step:  Lambda=-1.05137688D-03 EMin= 2.36827786D-03
 Quartic linear search produced a step of -0.16339.
 Iteration  1 RMS(Cart)=  0.01222566 RMS(Int)=  0.00009489
 Iteration  2 RMS(Cart)=  0.00008701 RMS(Int)=  0.00001364
 Iteration  3 RMS(Cart)=  0.00000001 RMS(Int)=  0.00001364
 Variable       Old X    -DE/DX   Delta X   Delta X   Delta X     New X
                                 (Linear)    (Quad)   (Total)
    R1        2.63971  -0.00208   0.00140  -0.00632  -0.00492   2.63479
    R2        2.62244   0.00233   0.00422  -0.00275   0.00147   2.62391
    R3        2.04718   0.00051  -0.00411   0.00801   0.00389   2.05107
    R4        2.64599   0.00016   0.00037  -0.00048  -0.00010   2.64588
    R5        2.04913   0.00072  -0.00443   0.00899   0.00456   2.05369
    R6        2.63108   0.00290   0.00281   0.00070   0.00351   2.63458
    R7        2.87230  -0.00430   0.00619  -0.02294  -0.01675   2.85555
    R8        2.63214   0.00068   0.00263  -0.00295  -0.00033   2.63181
    R9        2.04566  -0.00069  -0.00387   0.00490   0.00104   2.04670
   R10        2.62792   0.00199   0.00332  -0.00171   0.00161   2.62953
   R11        2.75210   0.01112   0.00421   0.01892   0.02314   2.77524
   R12        2.04488  -0.00102  -0.00374   0.00395   0.00022   2.04509
   R13        2.06333   0.00144  -0.00675   0.01448   0.00773   2.07106
   R14        2.05937   0.00089  -0.00611   0.01218   0.00607   2.06545
   R15        2.05921   0.00110  -0.00608   0.01260   0.00652   2.06573
   R16        2.32659  -0.00634   0.00198  -0.00929  -0.00730   2.31929
   R17        2.32652  -0.00669   0.00199  -0.00964  -0.00764   2.31887
    A1        2.09841   0.00073  -0.00066   0.00316   0.00251   2.10092
    A2        2.10081  -0.00115  -0.00105  -0.00334  -0.00440   2.09642
    A3        2.08396   0.00043   0.00171   0.00018   0.00188   2.08584
    A4        2.11559   0.00040  -0.00346   0.00642   0.00297   2.11857
    A5        2.08441  -0.00027   0.00163  -0.00339  -0.00177   2.08264
    A6        2.08318  -0.00013   0.00183  -0.00303  -0.00120   2.08198
    A7        2.07104  -0.00096   0.00382  -0.01010  -0.00628   2.06476
    A8        2.11135  -0.00011  -0.00277   0.00446   0.00168   2.11303
    A9        2.10070   0.00108  -0.00103   0.00551   0.00447   2.10517
   A10        2.08295   0.00175   0.00187   0.00367   0.00553   2.08848
   A11        2.10749  -0.00012  -0.00214   0.00413   0.00199   2.10948
   A12        2.09274  -0.00163   0.00027  -0.00780  -0.00752   2.08522
   A13        2.13680  -0.00242  -0.00693   0.00397  -0.00298   2.13382
   A14        2.07298   0.00106   0.00350  -0.00253   0.00098   2.07396
   A15        2.07340   0.00136   0.00343  -0.00144   0.00200   2.07540
   A16        2.06157   0.00051   0.00536  -0.00711  -0.00176   2.05982
   A17        2.11880   0.00037  -0.00399   0.00902   0.00504   2.12384
   A18        2.10281  -0.00088  -0.00137  -0.00192  -0.00329   2.09952
   A19        1.92376   0.00129  -0.00214   0.00932   0.00716   1.93092
   A20        1.93339   0.00123  -0.00372   0.01305   0.00931   1.94270
   A21        1.92869   0.00188  -0.00295   0.01535   0.01237   1.94106
   A22        1.88978  -0.00152   0.00341  -0.01490  -0.01149   1.87829
   A23        1.89009  -0.00174   0.00336  -0.01552  -0.01218   1.87791
   A24        1.89704  -0.00130   0.00222  -0.00877  -0.00658   1.89045
   A25        2.04463   0.00740   0.00813   0.01099   0.01907   2.06370
   A26        2.04691   0.00639   0.00776   0.00826   0.01597   2.06289
   A27        2.19164  -0.01379  -0.01589  -0.01921  -0.03515   2.15649
    D1       -0.00059  -0.00002   0.00010  -0.00061  -0.00052  -0.00111
    D2        3.14051  -0.00005   0.00018  -0.00183  -0.00165   3.13885
    D3       -3.13927   0.00000  -0.00038   0.00128   0.00090  -3.13837
    D4        0.00182  -0.00002  -0.00030   0.00007  -0.00023   0.00159
    D5        0.00111  -0.00002  -0.00018  -0.00016  -0.00034   0.00077
    D6       -3.13844   0.00002  -0.00051   0.00192   0.00141  -3.13703
    D7        3.13982  -0.00005   0.00029  -0.00204  -0.00176   3.13806
    D8        0.00027  -0.00000  -0.00004   0.00003  -0.00001   0.00025
    D9        0.00015   0.00007  -0.00002   0.00144   0.00141   0.00157
   D10       -3.12740   0.00014  -0.00232   0.01183   0.00949  -3.11791
   D11       -3.14094   0.00009  -0.00011   0.00265   0.00255  -3.13840
   D12        0.01469   0.00016  -0.00240   0.01304   0.01063   0.02532
   D13       -0.00027  -0.00007   0.00004  -0.00150  -0.00145  -0.00172
   D14        3.14060  -0.00008   0.00016  -0.00246  -0.00230   3.13831
   D15        3.12737  -0.00015   0.00232  -0.01182  -0.00951   3.11786
   D16       -0.01494  -0.00016   0.00244  -0.01279  -0.01036  -0.02530
   D17        1.55985  -0.00003   0.00179  -0.01304  -0.01124   1.54860
   D18       -2.63217  -0.00030   0.00232  -0.01721  -0.01491  -2.64708
   D19       -0.52870   0.00012   0.00083  -0.00949  -0.00865  -0.53735
   D20       -1.56747   0.00006  -0.00054  -0.00236  -0.00289  -1.57036
   D21        0.52370  -0.00021  -0.00002  -0.00653  -0.00656   0.51714
   D22        2.62717   0.00021  -0.00150   0.00119  -0.00030   2.62687
   D23        0.00085   0.00002  -0.00014   0.00077   0.00063   0.00148
   D24        3.13990   0.00000   0.00028  -0.00102  -0.00074   3.13917
   D25       -3.14003   0.00003  -0.00026   0.00173   0.00146  -3.13857
   D26       -0.00098   0.00001   0.00016  -0.00007   0.00009  -0.00089
   D27       -0.00127   0.00002   0.00021   0.00008   0.00029  -0.00098
   D28        3.13831  -0.00002   0.00054  -0.00197  -0.00142   3.13688
   D29       -3.14032   0.00004  -0.00021   0.00187   0.00166  -3.13866
   D30       -0.00074   0.00000   0.00012  -0.00017  -0.00005  -0.00080
   D31        0.00227  -0.00009  -0.00037  -0.00845  -0.00882  -0.00654
   D32       -3.14151   0.00010  -0.00001   0.00893   0.00892  -3.13259
   D33        3.14142  -0.00011   0.00003  -0.01017  -0.01014   3.13127
   D34       -0.00236   0.00008   0.00039   0.00721   0.00759   0.00523
         Item               Value     Threshold  Converged?
 Maximum Force            0.013789     0.000450     NO 
 RMS     Force            0.002718     0.000300     NO 
 Maximum Displacement     0.053219     0.001800     NO 
 RMS     Displacement     0.012214     0.001200     NO 
 Predicted change in Energy=-6.893633D-04
 GradGradGradGradGradGradGradGradGradGradGradGradGradGradGradGradGradGrad

                          Input orientation:                          
 ---------------------------------------------------------------------
 Center     Atomic      Atomic             Coordinates (Angstroms)
 Number     Number       Type             X           Y           Z
 ---------------------------------------------------------------------
      1          6           0       -0.957004   -0.142703    0.861146
      2          6           0        0.354065   -0.198092    0.389955
      3          6           0        0.959160    0.910535   -0.214365
      4          6           0        0.217009    2.084541   -0.335222
      5          6           0       -1.091506    2.124722    0.139939
      6          6           0       -1.697499    1.025705    0.740911
      7          1           0       -1.404803   -1.013697    1.329007
      8          1           0        0.918962   -1.120525    0.495151
      9          1           0        0.645086    2.967839   -0.793007
     10          6           0        2.370094    0.833412   -0.749828
     11          1           0        2.369764    0.492843   -1.791528
     12          1           0        2.859688    1.810195   -0.721285
     13          1           0        2.974494    0.129210   -0.172117
     14          1           0       -2.715122    1.093578    1.102890
     15          7           0       -1.855561    3.371738    0.006006
     16          8           0       -1.305400    4.336701   -0.515979
     17          8           0       -3.004087    3.397128    0.437289
 ---------------------------------------------------------------------
                    Distance matrix (angstroms):
                    1          2          3          4          5
     1  C    0.000000
     2  C    1.394271   0.000000
     3  C    2.436743   1.400142   0.000000
     4  C    2.787510   2.398975   1.394161   0.000000
     5  C    2.383159   2.747298   2.409359   1.392696   0.000000
     6  C    1.388512   2.414491   2.825536   2.438141   1.391486
     7  H    1.085380   2.154216   3.416575   3.872855   3.370714
     8  H    2.146936   1.086764   2.151798   3.384480   3.834030
     9  H    3.870192   3.392228   2.160086   1.083067   2.144058
    10  C    3.823299   2.535247   1.511093   2.524480   3.800242
    11  H    4.302090   3.049475   2.156783   3.047735   4.286488
    12  H    4.570015   3.397973   2.162952   2.684784   4.056176
    13  H    4.074094   2.699944   2.161903   3.384324   4.540022
    14  H    2.162824   3.405378   3.907559   3.412852   2.150967
    15  N    3.726924   4.215868   3.745495   2.463504   1.468593
    16  O    4.699246   4.913135   4.117988   2.724450   2.317074
    17  O    4.111035   4.919862   4.723890   3.563021   2.316334
                    6          7          8          9         10
     6  C    0.000000
     7  H    2.142590   0.000000
     8  H    3.393018   2.471155   0.000000
     9  H    3.407711   4.955564   4.295239   0.000000
    10  C    4.336426   4.688626   2.733793   2.744685   0.000000
    11  H    4.820769   5.123939   3.152250   3.177603   1.095959
    12  H    4.849886   5.510349   3.719577   2.499949   1.092988
    13  H    4.844052   4.768422   2.496457   3.724173   1.093138
    14  H    1.082216   2.491721   4.298623   4.289321   5.418456
    15  N    2.463521   4.602777   5.302609   2.656086   4.987037
    16  O    3.563174   5.660443   5.979255   2.398943   5.083008
    17  O    2.724520   4.775799   5.983549   3.874840   6.071549
                   11         12         13         14         15
    11  H    0.000000
    12  H    1.766596   0.000000
    13  H    1.766471   1.772140   0.000000
    14  H    5.881717   5.909286   5.909939   0.000000
    15  N    5.419643   5.020053   5.820236   2.670582   0.000000
    16  O    5.468922   4.875791   6.011549   3.889203   1.227314
    17  O    6.502367   6.184215   6.840622   2.415133   1.227096
                   16         17
    16  O    0.000000
    17  O    2.162650   0.000000
 Stoichiometry    C7H7NO2
 Framework group  C1[X(C7H7NO2)]
 Deg. of freedom    45
 Full point group                 C1      NOp   1
 Largest Abelian subgroup         C1      NOp   1
 Largest concise Abelian subgroup C1      NOp   1
                         Standard orientation:                         
 ---------------------------------------------------------------------
 Center     Atomic      Atomic             Coordinates (Angstroms)
 Number     Number       Type             X           Y           Z
 ---------------------------------------------------------------------
      1          6           0        0.955574    1.915157   -0.000120
      2          6           0        1.996107    0.987147   -0.009125
      3          6           0        1.744715   -0.390240   -0.011269
      4          6           0        0.418493   -0.820117   -0.006065
      5          6           0       -0.610256    0.118602    0.003130
      6          6           0       -0.365727    1.488431    0.005659
      7          1           0        1.174032    2.978323   -0.001644
      8          1           0        3.023972    1.339994   -0.016142
      9          1           0        0.176581   -1.875812   -0.010531
     10          6           0        2.877812   -1.389768    0.009609
     11          1           0        3.164979   -1.626562    1.040429
     12          1           0        2.591087   -2.325428   -0.477167
     13          1           0        3.762325   -0.995667   -0.497612
     14          1           0       -1.189693    2.190047    0.008473
     15          7           0       -2.000573   -0.354452    0.005372
     16          8           0       -2.202144   -1.565025   -0.008053
     17          8           0       -2.897803    0.482650    0.003762
 ---------------------------------------------------------------------
 Rotational constants (GHZ):           2.6641454           0.9818604           0.7206738
 Standard basis: 6-311G(d) (5D, 7F)
 There are   211 symmetry adapted cartesian basis functions of A   symmetry.
 There are   201 symmetry adapted basis functions of A   symmetry.
   201 basis functions,   355 primitive gaussians,   211 cartesian basis functions
    36 alpha electrons       36 beta electrons
       nuclear repulsion energy       494.6890185101 Hartrees.
 NAtoms=   17 NActive=   17 NUniq=   17 SFac= 1.00D+00 NAtFMM=   60 NAOKFM=F Big=F
 Integral buffers will be    131072 words long.
 Raffenetti 2 integral format.
 Two-electron integral symmetry is turned on.
 ------------------------------------------------------------------------------
 Polarizable Continuum Model (PCM)
 =================================
 Model                : PCM.
 Atomic radii         : UFF (Universal Force Field).
 Polarization charges : Total charges.
 Charge compensation  : None.
 Solution method      : On-the-fly selection.
 Cavity type          : Scaled VdW (van der Waals Surface) (Alpha=1.100).
 Cavity algorithm     : GePol (No added spheres)
                        Default sphere list used, NSphG=   17.
                        Lebedev-Laikov grids with approx.  5.0 points / Ang**2.
                        Smoothing algorithm: York/Karplus (Gamma=1.0000).
                        Polarization charges: spherical gaussians, with
                                              point-specific exponents (IZeta= 3).
                        Self-potential: point-specific (ISelfS= 7).
                        Self-field    : sphere-specific E.n sum rule (ISelfD= 2).
 1st derivatives      : Analytical E(r).r(x)/FMM algorithm (CHGder, D1EAlg=3).
                        Cavity 1st derivative terms included.
 Solvent              : Dichloromethane, Eps=   8.930000 Eps(inf)=   2.028346
 ------------------------------------------------------------------------------
 Spheres list:
 ISph  on   Nord     Re0    Alpha      Xe            Ye            Ze
    1   C      1    1.9255  1.100      0.955574      1.915157     -0.000120
    2   C      2    1.9255  1.100      1.996107      0.987147     -0.009125
    3   C      3    1.9255  1.100      1.744715     -0.390240     -0.011269
    4   C      4    1.9255  1.100      0.418493     -0.820117     -0.006065
    5   C      5    1.9255  1.100     -0.610256      0.118602      0.003130
    6   C      6    1.9255  1.100     -0.365727      1.488431      0.005659
    7   H      7    1.4430  1.100      1.174032      2.978323     -0.001644
    8   H      8    1.4430  1.100      3.023972      1.339994     -0.016142
    9   H      9    1.4430  1.100      0.176581     -1.875812     -0.010531
   10   C     10    1.9255  1.100      2.877812     -1.389768      0.009609
   11   H     11    1.4430  1.100      3.164979     -1.626562      1.040429
   12   H     12    1.4430  1.100      2.591087     -2.325428     -0.477167
   13   H     13    1.4430  1.100      3.762325     -0.995667     -0.497612
   14   H     14    1.4430  1.100     -1.189693      2.190047      0.008473
   15   N     15    1.8300  1.100     -2.000573     -0.354452      0.005372
   16   O     16    1.7500  1.100     -2.202144     -1.565025     -0.008053
   17   O     17    1.7500  1.100     -2.897803      0.482650      0.003762
 ------------------------------------------------------------------------------
 One-electron integrals computed using PRISM.
 NBasis=   201 RedAO= T EigKep=  1.86D-04  NBF=   201
 NBsUse=   201 1.00D-06 EigRej= -1.00D+00 NBFU=   201
 Initial guess from the checkpoint file:  "/home/kimariyb/g16/scratch/Gau-6012.chk"
 B after Tr=    -0.000000    0.000000    0.000000
         Rot=    0.999996    0.000160   -0.000004    0.002706 Ang=   0.31 deg.
 ExpMin= 1.03D-01 ExpMax= 8.59D+03 ExpMxC= 1.30D+03 IAcc=2 IRadAn=         4 AccDes= 0.00D+00
 Harris functional with IExCor=  402 and IRadAn=       4 diagonalized for initial guess.
 HarFok:  IExCor=  402 AccDes= 0.00D+00 IRadAn=         4 IDoV= 1 UseB2=F ITyADJ=14
 ICtDFT=  3500011 ScaDFX=  1.000000  1.000000  1.000000  1.000000
 FoFCou: FMM=F IPFlag=           0 FMFlag=      100000 FMFlg1=           0
         NFxFlg=           0 DoJE=T BraDBF=F KetDBF=T FulRan=T
         wScrn=  0.000000 ICntrl=       500 IOpCl=  0 I1Cent=   200000004 NGrid=           0
         NMat0=    1 NMatS0=      1 NMatT0=    0 NMatD0=    1 NMtDS0=    0 NMtDT0=    0
 Petite list used in FoFCou.
 Requested convergence on RMS density matrix=1.00D-08 within 128 cycles.
 Requested convergence on MAX density matrix=1.00D-06.
 Requested convergence on             energy=1.00D-06.
 No special actions if energy rises.
 Inv3:  Mode=1 IEnd=     6678192.
 Iteration    1 A*A^-1 deviation from unit magnitude is 2.78D-15 for    757.
 Iteration    1 A*A^-1 deviation from orthogonality  is 1.78D-15 for   1281     38.
 Iteration    1 A^-1*A deviation from unit magnitude is 3.11D-15 for    549.
 Iteration    1 A^-1*A deviation from orthogonality  is 2.35D-15 for   1108    304.
 Error on total polarization charges =  0.00846
 SCF Done:  E(RB3LYP) =  -476.188014740     A.U. after   11 cycles
            NFock= 11  Conv=0.57D-08     -V/T= 2.0035
 D1PCM: PCM CHGder 1st derivatives, ID1Alg=3 FixD1E=F DoIter=F DoCFld=F I1PDM=0.
 Calling FoFJK, ICntrl=      2127 FMM=F ISym2X=0 I1Cent= 0 IOpClX= 0 NMat=1 NMatS=1 NMatT=0.
 ***** Axes restored to original set *****
 -------------------------------------------------------------------
 Center     Atomic                   Forces (Hartrees/Bohr)
 Number     Number              X              Y              Z
 -------------------------------------------------------------------
      1        6           0.000162013   -0.001679837    0.000619943
      2        6           0.000013071   -0.001352633    0.000439763
      3        6           0.002168092   -0.000470711   -0.000995859
      4        6          -0.000748395    0.001460515   -0.000268118
      5        6           0.001334662   -0.001739336   -0.000499602
      6        6          -0.001814211    0.000829669    0.000292178
      7        1           0.000608420    0.000541681   -0.000426171
      8        1          -0.000450095    0.000732663   -0.000016050
      9        1          -0.000473730   -0.000381246    0.000351599
     10        6          -0.001028161    0.000149354    0.000890135
     11        1           0.000435682    0.000234061    0.000771357
     12        1          -0.000127811   -0.001018300   -0.000321911
     13        1          -0.000188563    0.000623862   -0.000840842
     14        1           0.000753294    0.000124970   -0.000379544
     15        7          -0.000970528    0.004149399    0.001766749
     16        8           0.000088407   -0.001123980   -0.000646285
     17        8           0.000237854   -0.001080131   -0.000737342
 -------------------------------------------------------------------
 Cartesian Forces:  Max     0.004149399 RMS     0.001044105

 GradGradGradGradGradGradGradGradGradGradGradGradGradGradGradGradGradGrad
 Berny optimization.
 Using GEDIIS/GDIIS optimizer.
 FormGI is forming the generalized inverse of G from B-inverse, IUseBI=4.
 Internal  Forces:  Max     0.001951821 RMS     0.000542578
 Search for a local minimum.
 Step number   3 out of a maximum of   88
 All quantities printed in internal units (Hartrees-Bohrs-Radians)
 Mixed Optimization -- En-DIIS/RFO-DIIS
 Update second derivatives using D2CorX and points    1    2    3
 DE= -6.84D-04 DEPred=-6.89D-04 R= 9.92D-01
 TightC=F SS=  1.41D+00  RLast= 7.13D-02 DXNew= 8.4853D-01 2.1404D-01
 Trust test= 9.92D-01 RLast= 7.13D-02 DXMaxT set to 5.05D-01
 ITU=  1  1  0
 Use linear search instead of GDIIS.
     Eigenvalues ---    0.00236   0.00766   0.00801   0.01325   0.01689
     Eigenvalues ---    0.02064   0.02070   0.02070   0.02070   0.02070
     Eigenvalues ---    0.02070   0.02074   0.06824   0.06982   0.13937
     Eigenvalues ---    0.16000   0.16000   0.16000   0.16000   0.16001
     Eigenvalues ---    0.16020   0.21906   0.22427   0.23568   0.24985
     Eigenvalues ---    0.24996   0.25000   0.26759   0.32255   0.37091
     Eigenvalues ---    0.37185   0.37230   0.37230   0.37230   0.37230
     Eigenvalues ---    0.37884   0.39573   0.41451   0.44191   0.45222
     Eigenvalues ---    0.45389   0.45389   0.46921   0.85186   0.87995
 RFO step:  Lambda=-4.62693688D-04 EMin= 2.36374907D-03
 Quartic linear search produced a step of -0.00570.
 Iteration  1 RMS(Cart)=  0.02480260 RMS(Int)=  0.00221320
 Iteration  2 RMS(Cart)=  0.00189699 RMS(Int)=  0.00139428
 Iteration  3 RMS(Cart)=  0.00000572 RMS(Int)=  0.00139427
 Iteration  4 RMS(Cart)=  0.00000002 RMS(Int)=  0.00139427
 Variable       Old X    -DE/DX   Delta X   Delta X   Delta X     New X
                                 (Linear)    (Quad)   (Total)
    R1        2.63479   0.00004   0.00003  -0.00233  -0.00231   2.63248
    R2        2.62391   0.00143  -0.00001   0.00254   0.00253   2.62644
    R3        2.05107  -0.00087  -0.00002   0.00051   0.00049   2.05156
    R4        2.64588   0.00086   0.00000   0.00176   0.00176   2.64764
    R5        2.05369  -0.00086  -0.00003   0.00091   0.00089   2.05457
    R6        2.63458   0.00131  -0.00002   0.00350   0.00348   2.63807
    R7        2.85555  -0.00102   0.00010  -0.01239  -0.01230   2.84326
    R8        2.63181  -0.00042   0.00000  -0.00187  -0.00187   2.62994
    R9        2.04670  -0.00065  -0.00001  -0.00017  -0.00017   2.04653
   R10        2.62953   0.00032  -0.00001   0.00038   0.00037   2.62990
   R11        2.77524   0.00195  -0.00013   0.01389   0.01376   2.78900
   R12        2.04509  -0.00083  -0.00000  -0.00103  -0.00103   2.04406
[...]
   zy         0.102497D+01      0.151885D+00      0.168995D+00
   zz         0.153117D+03      0.226896D+02      0.252456D+02

 ----------------------------------------------------------------------
 1\1\GINC-LOCALHOST\Freq\RB3LYP\6-311G(d)\C7H7N1O2\KIMARIYB\18-Jul-2023
 \0\\#N Geom=AllCheck Guess=TCheck SCRF=Check GenChk RB3LYP/6-311G(d) F
 req\\Title Card Required\\0,1\C,-0.972309669,-0.1582710001,0.811901331
 5\C,0.3370357882,-0.2111362137,0.33976478\C,0.9548429393,0.9109871051,
 -0.2318088339\C,0.2226508848,2.0945200145,-0.3171418602\C,-1.085822769
 3,2.1313710401,0.1596789086\C,-1.7037327949,1.022336545,0.7263801357\H
 ,-1.4267927888,-1.0396305425,1.2499573084\H,0.8925292051,-1.1408675816
 ,0.4161594846\H,0.6554649748,2.9874686144,-0.7483978448\C,2.3708551329
 ,0.8325869292,-0.7452672431\H,2.4434149764,0.1444543813,-1.5927803267\
 H,2.7320542494,1.8076056257,-1.0753146449\H,3.051458471,0.4639937032,0
 .0269626625\H,-2.7208732123,1.0896213851,1.0862176743\N,-1.8405096222,
 3.3932258994,0.060162168\O,-1.281004074,4.3636006567,-0.4391668252\O,-
 2.9919212113,3.4112643382,0.4816569351\\Version=ES64L-G16RevA.03\State
 =1-A\HF=-476.1881079\RMSD=6.009e-09\RMSF=9.124e-06\ZeroPoint=0.1301229
 \Thermal=0.1388366\Dipole=1.3535377,-1.9470148,0.0787285\DipoleDeriv=-
 0.2031705,0.1559977,-0.0295991,0.2043467,0.0613168,-0.1427629,-0.04226
 55,-0.1250516,-0.0997161,-0.0225854,-0.0553118,-0.0126158,-0.1366,0.19
 23055,-0.0384062,0.0126668,-0.0674475,-0.0896949,0.5064741,-0.055483,-
 0.2116992,-0.0954644,-0.3288567,0.1113115,-0.2181807,0.1005243,-0.0265
 667,-0.1341641,-0.298402,0.1012147,0.1287001,0.0965729,-0.1110198,-0.0
 268789,0.0460367,-0.1125115,-0.0491635,0.3869429,-0.0768713,0.3905999,
 -0.4877849,0.0211208,-0.0768448,0.0221681,0.0817136,-0.0754735,0.05740
 73,-0.0292519,-0.2921282,0.0959536,0.0463059,0.0766659,-0.083745,-0.11
 34943,0.0594854,-0.0682694,0.0583982,-0.0609598,-0.0429019,0.0847523,0
 .0555395,0.0882533,0.1130713,0.0408559,0.1182984,0.0040465,0.1045582,-
 0.0510466,0.0220194,0.0076954,0.0170819,0.1410631,0.1094887,-0.0486692
 ,0.0329462,-0.059013,0.0675687,0.0500312,0.0341855,0.0442896,0.133905,
 -0.0131152,0.0194409,0.0522501,0.124316,0.127644,-0.0445324,0.0632618,
 -0.0094422,0.1169275,-0.0176054,-0.0028835,0.027911,0.0074403,0.009421
 3,-0.124785,0.0789631,-0.12238,-0.0535358,0.0126869,0.0033955,0.030577
 6,-0.1099228,-0.1181681,0.0855357,0.0509548,0.0474667,0.073159,-0.0920
 54,0.0480291,-0.034398,0.0428047,0.0770507,0.0682989,-0.0989341,0.0665
 29,-0.0412753,0.0321386,-0.0007712,0.0515969,0.0164956,0.1469205,0.000
 7896,0.0460981,0.0070684,0.1501822,1.9388798,-0.4190744,-0.4734098,-0.
 452762,2.2737805,-0.4183704,-0.4631484,-0.4325445,0.623934,-0.7027436,
 -0.0751967,0.173612,-0.1306602,-1.3685662,0.3709961,0.1901943,0.351176
 8,-0.4714362,-1.3899342,0.2345493,0.3352917,0.3182489,-0.7512101,0.018
 7151,0.3100272,0.050016,-0.4257248\Polar=136.5346177,-17.9394798,136.2
 823156,-27.2732412,-19.5732324,65.6148582\Quadrupole=1.0452945,-1.5329
 833,0.4876887,3.2016283,-1.5227726,-0.8427571\PG=C01 [X(C7H7N1O2)]\NIm
 ag=0\\0.61330712,-0.02130155,0.67792011,-0.17289419,-0.15786729,0.2452
 3898,-0.30299509,-0.01660435,0.09516827,0.63196337,0.04271195,-0.12750
 662,0.00414143,-0.08730343,0.66182159,0.07726529,0.02616427,-0.0982588
 2,-0.15747425,-0.12686802,0.23645082,-0.01783340,-0.02762225,0.0177903
 6,-0.15295708,-0.08389933,0.05675985,0.58633919,-0.06828157,0.03951397
 ,0.01556938,-0.02545014,-0.23894617,0.06143939,-0.05371460,0.61931114,
 0.02999480,0.00066720,-0.00431605,0.03906772,0.08286991,-0.10915336,-0
 .13921738,-0.11517621,0.26057158,-0.04700631,0.02995627,0.00638841,0.0
 5633483,0.02046936,-0.02403055,-0.17383599,0.06119397,0.02188850,0.617
 29654,0.02431857,-0.01734576,-0.00544247,-0.01661622,-0.05235808,0.024
 35975,0.12311863,-0.26482550,0.01427187,-0.02137384,0.68311027,0.00796
 089,-0.00747599,-0.00617548,-0.01280735,0.01075078,0.00940013,0.003038
 38,0.03700943,-0.07833892,-0.17397459,-0.15787812,0.24677194,0.0502476
 6,-0.01718727,-0.01119916,-0.04069298,-0.02176179,0.01932020,-0.026397
 15,0.07149362,-0.01041246,-0.28583051,-0.03340728,0.09450045,0.6239143
 7,0.02942352,-0.05651612,0.00807888,-0.02315031,-0.01431654,0.01105236
 ,0.02538805,0.01874379,-0.01403665,0.01676974,-0.11255272,0.00967842,0
 .04377365,0.54643484,-0.02533250,0.02544605,0.00805342,0.01989058,0.01
 056852,-0.01671610,0.00381510,-0.03103592,0.01228325,0.07918666,0.0283
 4819,-0.09827615,-0.19643462,-0.14152341,0.24874709,-0.17818799,0.1276
 1440,0.00460364,-0.02904526,0.02758075,0.00504765,0.00220352,0.0003169
 6,-0.00298733,-0.01790078,-0.02367955,0.01749970,-0.16781857,-0.102936
 95,0.07111361,0.68983147,0.06814481,-0.27490656,0.03921843,0.06865274,
 0.02785150,-0.03176991,0.00269930,-0.06275864,0.01647036,-0.06329219,0
 .03153987,0.01684664,-0.05273183,-0.22626209,0.06975199,-0.05965645,0.
 62251509,0.02270399,0.01695257,-0.07579081,-0.00745518,-0.01665933,0.0
 1474678,-0.00352425,0.01731486,-0.00914009,0.02946786,0.00225246,-0.00
 183597,0.05595278,0.08855592,-0.10864420,-0.18984853,-0.12618232,0.242
 28410,-0.10645853,-0.09364269,0.05445547,-0.00789812,-0.02542188,0.011
 86176,-0.00381694,0.00204936,0.00354845,-0.00089274,0.00071079,-0.0001
 1921,-0.00049865,0.00309450,0.00183618,0.01074683,0.01531862,-0.007561
 22,0.10796671,-0.09351770,-0.24301530,0.09768124,0.00239150,0.00537059
 ,-0.00157511,0.00152004,0.00173739,0.00109911,0.00042855,0.00007055,-0
 .00036741,0.00439173,-0.00178017,0.00101264,-0.01225116,-0.01754524,0.
 01082617,0.09918636,0.25508487,0.05442100,0.09775705,-0.08697820,0.003
 39313,0.00883223,-0.00082637,0.00362937,0.00088065,0.00563122,-0.00004
 879,-0.00046688,-0.00046325,0.00145654,0.00150045,0.00593847,0.0008301
 7,0.00049835,0.00251686,-0.06083368,-0.10682072,0.08112289,-0.01056276
 ,0.02671280,-0.00264248,-0.12956658,0.12178229,-0.00361014,0.01028076,
 -0.01202225,0.00153008,0.00010985,-0.00239516,0.00306033,-0.00073583,-
 0.00067826,0.00056138,-0.00392792,-0.00014205,0.00423936,0.00054090,-0
 .00079498,-0.00144718,0.13327526,-0.00124219,0.00312118,0.00074659,0.1
 2191232,-0.26057096,0.02197049,0.01465234,-0.01734393,0.00124872,-0.00
 239683,-0.00223046,0.00352997,-0.00087642,0.00015783,0.00034896,0.0002
 7943,0.00213311,0.00148635,-0.00012092,0.00036179,-0.00128949,-0.13234
 496,0.27434820,0.00587200,-0.00967599,0.00484116,-0.00360151,0.0221197
 7,-0.04488098,-0.00675607,0.01119746,0.00375027,0.00309863,0.00346017,
 0.00416484,0.00060863,0.00026472,-0.00007716,0.00410377,0.00164816,0.0
 0528166,-0.00166005,-0.00103052,-0.00306768,0.00036847,-0.02646483,0.0
 3363887,-0.00055566,0.00054242,-0.00021790,-0.00079984,0.00402733,0.00
 156616,0.01017566,0.01365146,-0.00602368,-0.10373888,-0.09408236,0.053
 00349,-0.00707589,-0.02496153,0.01189217,-0.00461109,0.00221108,0.0027
 7239,-0.00003592,-0.00015244,-0.00024760,0.00047487,0.00066860,-0.0004
 6176,0.10482845,0.00080331,-0.00018231,-0.00045815,0.00363378,-0.00223
 496,0.00132867,-0.01090058,-0.01590907,0.01040900,-0.09528013,-0.24820
 736,0.09920128,-0.00041486,0.00497530,0.00000119,0.00149453,0.00146828
 ,0.00038732,-0.00014884,-0.00008369,-0.00016569,-0.00061437,-0.0007687
 4,0.00039311,0.09991614,0.26315816,-0.00031297,-0.00035790,-0.00048558
 ,0.00170208,0.00124610,0.00566610,0.00125653,0.00129920,0.00431586,0.0
 5340950,0.09867103,-0.08726873,0.00445288,0.00913404,0.00001066,0.0029
 7029,0.00011618,0.00346140,-0.00024927,-0.00016842,-0.00067670,-0.0000
 6896,-0.00009791,-0.00019360,-0.05968899,-0.10909294,0.08072022,0.0044
 5483,-0.00130326,0.00047007,-0.01871073,-0.00389606,0.00942397,-0.1942
 1796,0.00939218,0.04389862,-0.01892121,0.00518852,0.00767593,0.0014145
 6,0.00100907,0.00208658,-0.00123072,0.00160265,-0.00042797,0.00003988,
 0.00012396,-0.00002149,0.00052945,0.00079321,-0.00119932,0.00064048,-0
 .00203604,-0.00121214,0.49304797,-0.00217312,-0.00407398,0.00393147,-0
 .02566958,0.00608988,0.00915104,0.00219250,-0.08776885,0.00436335,0.02
 792777,-0.00017565,-0.00910106,0.00086223,-0.00253024,0.00255668,0.001
 27402,-0.00104317,-0.00043457,-0.00132928,0.00010047,0.00043928,-0.000
 75441,0.00098280,-0.00096410,0.00071023,0.00048347,-0.00155789,0.00950
 430,0.57901755,0.00044884,0.00316493,0.00384436,0.01598129,0.00081420,
 -0.00310717,0.04461939,0.00166553,-0.08828187,0.00057232,-0.00041059,0
 .00551006,0.00201848,0.00303476,0.00655723,0.00002000,-0.00071156,-0.0
 0075609,0.00034089,-0.00006653,-0.00012237,-0.00082846,-0.00117149,-0.
 00174449,-0.00208851,-0.00089993,-0.00361944,0.01733678,-0.01652268,0.
 53491066,-0.00025670,-0.00000517,-0.00088137,0.00056127,0.00080673,-0.
 00070024,-0.00455106,0.02147898,0.02560843,-0.00218774,-0.00105439,0.0
 0116211,-0.00098735,-0.00002164,-0.00130476,-0.00025958,0.00023886,0.0
 0023728,0.00001035,-0.00003677,0.00006928,0.00032164,-0.00030505,0.000
 40464,0.00023309,0.00020731,0.00060316,-0.04544175,0.00745172,0.012215
 33,0.05216725,0.00150077,-0.00038733,-0.00019275,-0.00188251,-0.000360
 03,0.00117983,0.00257251,-0.00021433,0.00018654,0.00125771,0.00007845,
 -0.00049021,-0.00025203,-0.00031019,0.00062801,-0.00032141,0.00097237,
 -0.00015688,0.00005871,-0.00000720,-0.00001233,-0.00010092,-0.00016582
 ,-0.00031060,-0.00015645,0.00013545,-0.00037530,0.00655050,-0.15039275
 ,-0.12706803,-0.00940679,0.15982061,0.00024869,0.00014739,0.00036190,0
 .00046281,-0.00033003,0.00113276,0.00207018,-0.00522066,-0.00682180,0.
 00006681,0.00083625,-0.00058779,0.00030260,-0.00002422,0.00004734,0.00
 006322,-0.00011463,-0.00007664,0.00003484,0.00002127,-0.00003638,-0.00
 004713,0.00023882,-0.00046008,-0.00005049,-0.00002019,-0.00002295,0.01
 136914,-0.12748947,-0.20209778,-0.01390420,0.14061578,0.21744717,0.000
 24823,-0.00153937,0.00069754,-0.00577774,0.00186699,0.00201689,-0.0103
 0511,-0.02930475,0.00911772,0.00193114,-0.00181667,0.00004576,-0.00028
 443,0.00008329,0.00006074,0.00002540,0.00025452,-0.00010544,-0.0004641
 1,-0.00000436,0.00012214,0.00000839,-0.00005605,-0.00011477,-0.0001921
 9,0.00099737,-0.00021852,-0.07646386,-0.07391106,0.02500643,-0.0002850
 3,0.00167706,-0.00153367,0.08383094,0.00040388,0.00005163,-0.00008581,
 0.00025860,0.00053087,-0.00001318,0.00208285,0.00314544,-0.00162293,0.
 00139305,0.00070724,-0.00060632,-0.00011402,0.00030465,0.00002403,-0.0
 0011478,0.00016196,0.00000863,-0.00003211,-0.00000224,-0.00002984,0.00
 015720,0.00020290,-0.00016386,-0.00012624,0.00036382,-0.00008712,-0.07
 879395,-0.26438727,0.07297855,-0.00549090,-0.01708528,0.00643734,0.082
 92873,0.28443726,0.00017501,0.00063560,0.00010007,0.00258849,-0.000481
 40,0.00062441,0.00318877,0.01019018,-0.00532012,-0.00102222,0.00049504
 ,0.00038685,0.00000261,-0.00018146,-0.00020920,-0.00002597,-0.00000464
 ,0.00002798,0.00013681,-0.00004439,-0.00019571,-0.00012144,-0.00015277
 ,-0.00008832,0.00011945,-0.00032711,0.00032377,0.02586938,0.07102577,-
 0.07143219,-0.00872507,-0.02303073,0.00959846,-0.03082947,-0.07880457,
 0.07275757,0.00005877,0.00044847,0.00072296,0.00145882,0.00148419,0.00
 005275,-0.02079634,0.01124348,-0.02042579,-0.00308601,-0.00143526,0.00
 116529,0.00014797,0.00096564,0.00098961,-0.00029718,-0.00008419,-0.000
 06720,-0.00002965,-0.00006153,-0.00002111,-0.00020339,-0.00089149,-0.0
 0035539,-0.00013334,-0.00018147,-0.00046825,-0.14504832,0.05236300,-0.
 11506064,0.00101078,-0.00154363,0.00081923,0.00755929,-0.00245575,0.00
 869584,0.15974059,0.00093708,-0.00038197,-0.00062542,-0.00182837,-0.00
 010852,0.00075923,0.00255720,-0.00171970,-0.00053507,0.00118068,0.0001
 1641,-0.00028621,-0.00022130,-0.00048809,-0.00021992,-0.00033236,0.000
 64869,-0.00010720,0.00004890,-0.00000657,-0.00000392,-0.00001891,0.000
 00528,0.00033407,0.00004791,0.00040323,0.00022705,0.05211113,-0.076263
 94,0.06510493,-0.01379429,0.00800296,-0.01517876,0.01892854,-0.0084264
 3,0.02067174,-0.05980305,0.07820159,-0.00066943,0.00000931,0.00018707,
 0.00060530,0.00012093,0.00061092,0.00950285,-0.00554410,0.01070252,0.0
 0092049,0.00010211,-0.00051655,0.00027759,-0.00029631,-0.00072371,0.00
 019940,-0.00048994,0.00015592,-0.00004968,0.00001858,0.00002583,-0.000
 29357,-0.00006005,-0.00011376,0.00014815,-0.00000134,0.00023574,-0.115
 40401,0.06524861,-0.17966832,-0.01487804,0.00920295,-0.01845015,-0.004
 20852,0.00197811,-0.00654309,0.12373685,-0.07025751,0.19424530,-0.0081
 8818,-0.00070998,0.00477253,0.00128924,0.00276085,0.00140261,0.0002014
 6,0.00013475,-0.00050024,0.00140164,-0.00167462,0.00176155,-0.00878232
 ,0.00093097,0.00467944,-0.31214266,0.01432569,0.09857062,0.00024679,-0
 .00040732,-0.00154092,-0.00047593,-0.00016086,0.00015743,-0.00023101,0
 .00026818,0.00040068,-0.00004621,-0.00011239,-0.00017806,0.00002226,-0
 .00002342,-0.00001439,-0.00000163,-0.00001945,0.00000936,-0.00001153,0
 .00007903,-0.00002807,0.32885402,0.02532315,0.00387240,-0.00942972,0.0
 0265518,-0.00363224,0.00232789,0.00005140,-0.00107885,-0.00000904,-0.0
 0089556,-0.00414489,0.00302471,-0.02370957,0.00686407,0.00815225,0.016
 28107,-0.05704434,0.00003327,-0.00104022,0.00074100,-0.00111665,0.0011
 4738,-0.00000123,-0.00048021,-0.00123392,0.00037641,0.00066526,-0.0000
 2137,0.00011406,-0.00019398,-0.00001761,-0.00002033,0.00000855,0.00007
 371,0.00001011,-0.00002919,-0.00006363,0.00005436,-0.00001726,-0.01927
 469,0.05455213,-0.00315623,0.00034219,0.00507487,0.00145298,0.00229298
 ,0.00604991,-0.00051875,-0.00002320,-0.00084227,0.00153757,0.00331141,
 0.00317400,0.01212605,-0.00109076,0.00027678,0.09799879,0.00075980,-0.
 07369002,-0.00134881,-0.00135466,-0.00329347,-0.00024734,0.00000722,-0
 .00009215,0.00084601,0.00010317,0.00071786,-0.00013465,-0.00018913,-0.
 00045510,0.00004484,-0.00014187,-0.00003535,-0.00002840,-0.00002447,0.
 00001500,-0.00003466,0.00011966,-0.00004788,-0.10757619,-0.00162854,0.
 06613056,0.00480061,-0.00787561,0.00399987,-0.00334265,-0.00172561,0.0
 0106048,-0.00540574,-0.00379161,0.00661367,-0.02090177,0.03336810,-0.0
 0391235,-0.10594108,0.00231421,0.01116082,0.01718521,0.00858285,-0.010
 67075,0.00075425,-0.00143230,0.00052760,-0.00025884,-0.00043441,-0.000
 31980,-0.00145341,-0.00095332,-0.00086408,-0.00017373,0.00105179,-0.00
 001146,-0.00000347,-0.00006261,-0.00008814,0.00012667,0.00010742,-0.00
 010468,0.00012327,-0.00000288,0.00006187,-0.00421336,-0.00246441,0.000
 56752,0.76443154,-0.00956270,0.00197496,0.00574279,-0.00187581,-0.0014
 8275,0.00055301,-0.00130516,0.01153721,-0.00043063,0.02962057,-0.00689
 052,-0.01023260,0.00245868,-0.10571397,0.00864033,0.01248430,-0.043290
 56,0.00710152,0.00093196,0.00025047,-0.00013139,-0.00050285,0.00009842
 ,-0.00028606,-0.00415580,-0.00237393,0.00088301,-0.00015551,0.00080033
 ,0.00021853,-0.00067074,-0.00000260,0.00038222,-0.00047552,-0.00025888
 ,0.00018143,-0.00057245,0.00003679,0.00008545,0.00050687,0.00037559,-0
 .00172559,0.06226710,0.65624899,0.00452600,0.00509417,0.00588657,0.001
 08489,0.00051884,-0.00244164,0.00568477,0.00071011,0.00661629,-0.00270
 252,-0.01171308,0.00026153,0.01111394,0.00866368,-0.08091164,-0.011840
 48,0.00862027,-0.00258185,-0.00019463,0.00075679,0.00082693,-0.0002966
 5,-0.00031679,-0.00125671,0.00007075,-0.00031274,-0.00452969,0.0005060
 4,-0.00039120,0.00083442,-0.00003026,-0.00004587,0.00001452,0.00007370
 ,0.00000549,-0.00008831,0.00036319,0.00005202,-0.00018562,-0.00034583,
 -0.00062848,-0.00438972,-0.21857468,-0.15262002,0.35279518,0.00085869,
 0.00086494,-0.00108156,0.00039614,0.00137564,-0.00042044,0.00198884,-0
 .00149247,-0.00070299,-0.00796494,0.00556591,0.00212879,0.01909616,0.0
 0144551,-0.00108459,-0.00181914,0.00189266,0.00147411,-0.00020864,0.00
 020609,-0.00016246,0.00015925,0.00024728,-0.00008325,0.00099284,0.0038
 1802,-0.00149107,0.00016080,-0.00000143,-0.00004632,-0.00004800,0.0000
 7319,0.00003134,0.00009231,-0.00002511,-0.00002221,-0.00007869,0.00004
 930,-0.00001936,0.00069211,0.00101688,-0.00040837,-0.18659065,-0.11834
 294,0.07697450,0.23680589,0.00179098,-0.00378770,0.00007719,-0.0009685
 3,-0.00036801,0.00059196,-0.00099325,-0.00194572,0.00068627,-0.0048851
 1,-0.00138104,0.00290392,-0.01244835,-0.06040135,0.02799920,0.00913017
 ,0.00139239,-0.00273858,0.00040514,-0.00102785,0.00002439,0.00026853,-
 0.00020020,0.00000053,0.00247267,-0.00204407,-0.00027805,-0.00009625,-
 0.00024390,0.00006156,0.00028622,-0.00004107,-0.00015696,0.00019587,0.
 00013615,-0.00009871,0.00028986,-0.00004497,-0.00003788,-0.00014230,0.
 00115941,-0.00017189,-0.12181498,-0.38227460,0.13756755,0.17772937,0.4
 3916077,-0.00136751,0.00041376,-0.00096014,0.00029054,-0.00028784,0.00
 035348,-0.00083930,0.00079511,-0.00103605,0.00524902,-0.00097438,0.000
 53291,0.00310191,0.02285049,0.00936751,-0.00070224,-0.00003324,0.00392
 208,-0.00021997,0.00008899,-0.00041874,-0.00008930,0.00001018,0.000167
 55,-0.00107295,-0.00077502,0.00074457,-0.00002755,0.00008676,0.0000403
 0,-0.00006299,0.00001237,0.00002822,-0.00009492,-0.00002948,0.00002511
 ,-0.00006743,-0.00003081,0.00003125,-0.00005032,-0.00059197,0.00064107
 ,0.07802674,0.13628429,-0.14498698,-0.13116445,-0.18974940,0.13304221,
 -0.00193129,0.00165220,-0.00015247,-0.00021761,-0.00085797,0.00045799,
 -0.00107264,0.00310261,-0.00099811,0.00519287,0.00526482,-0.00218917,-
 0.04977597,0.02655055,0.01688361,-0.00275155,-0.00801705,0.00424213,-0
 .00000241,0.00041030,-0.00012599,0.00003087,0.00027599,-0.00006165,0.0
 0148186,-0.00060902,-0.00022087,-0.00003347,0.00061371,-0.00034627,-0.
 00030598,0.00005932,0.00016915,-0.00004826,-0.00015943,0.00006535,-0.0
 0041505,0.00006140,0.00009817,0.00138529,0.00217221,-0.00112035,-0.459
 13685,0.02935001,0.13358727,-0.06453297,-0.05122003,0.04909072,0.57213
 317,0.00072082,0.00164940,-0.00108579,0.00184511,0.00022045,-0.0006516
 8,0.00160035,-0.00147818,-0.00046180,-0.00207401,-0.00551081,0.0034927
 7,0.04014483,0.00339099,-0.01069880,0.00283703,-0.00583265,0.00135983,
 -0.00006841,-0.00024886,0.00010449,0.00030091,-0.00013018,-0.00004182,
 0.00062089,0.00044001,-0.00022635,0.00002692,-0.00070880,0.00000182,0.
 00033354,-0.00002292,-0.00015269,0.00010170,0.00010807,-0.00004480,0.0
 0029780,-0.00002911,-0.00006166,0.00351870,-0.00219767,-0.00058633,0.0
 3286626,-0.12903495,0.00403928,-0.07442283,0.01191176,0.03193018,-0.00
 864961,0.12747346,0.00011631,-0.00141734,-0.00062333,-0.00034979,0.000
 35094,0.00034912,-0.00049978,-0.00107120,-0.00062044,-0.00000712,0.000
 77722,0.00326057,0.01281157,-0.00566090,0.01427640,0.00095429,0.005376
 06,0.00011889,0.00002212,-0.00007702,0.00001667,-0.00006696,-0.0000339
 6,0.00013057,-0.00056667,0.00022936,0.00060050,-0.00020940,-0.00015287
 ,-0.00041223,0.00014186,-0.00000091,-0.00004144,-0.00000719,0.00003545
 ,0.00001772,-0.00004525,-0.00002388,0.00005453,-0.00152018,-0.00008690
 ,0.00076590,0.13252737,0.00535371,-0.12586330,0.05607832,0.02331890,-0
 .00149436,-0.19937951,-0.02691666,0.10946422\\-0.00001067,0.00000865,-
 0.00000031,0.00000432,0.00000790,-0.00000556,0.00001805,-0.00002499,-0
 .00000059,-0.00001303,0.00000579,0.00000038,-0.00000136,0.00002914,-0.
 00001006,0.00000037,-0.00001992,0.00000681,0.00000167,-0.00000054,-0.0
 0000124,-0.00000145,-0.00000078,0.00000155,0.00000168,-0.00000103,0.00
 000393,-0.00001828,0.00000987,0.00001537,0.00000337,-0.00000261,-0.000
 00514,0.00000067,-0.00000160,-0.00000381,0.00000406,-0.00000309,-0.000
 00558,0.00000016,0.00000292,-0.00000156,0.00001141,-0.00001610,0.00000
 779,0.00000442,0.00000794,-0.00000210,-0.00000539,-0.00000154,0.000000
 11\\\@


 I DO NOT KNOW WHAT I MAY APPEAR TO THE WORLD; BUT TO MYSELF
 I SEEM TO HAVE BEEN ONLY LIKE A BOY PLAYING ON THE SEASHORE,
 AND DIVERTING MYSELF IN NOW AND THEN FINDING A SMOOTHER PEBBLE
 OR A PRETTIER SHELL THAN ORDINARY, WHILST THE GREAT OCEAN OF
 TRUTH LAY ALL UNDISCOVERED BEFORE ME.
                                          -- NEWTON (1642-1726)
 Job cpu time:       0 days  0 hours 13 minutes 10.4 seconds.
 Elapsed time:       0 days  0 hours  1 minutes 24.8 seconds.
 File lengths (MBytes):  RWF=    120 Int=      0 D2E=      0 Chk=     10 Scr=      1
 Normal termination of Gaussian 16 at Tue Jul 18 12:34:02 2023.
