 Entering Gaussian System, Link 0=g16
 Initial command:
 /home/kimariyb/g16/l1.exe "/home/kimariyb/g16/scratch/Gau-9581.inp" -scrdir="/home/kimariyb/g16/scratch/"
 Default is to use a total of  10 processors:
                               10 via shared-memory
                                1 via Linda
 Entering Link 1 = /home/kimariyb/g16/l1.exe PID=      9584.
  
 Copyright (c) 1988,1990,1992,1993,1995,1998,2003,2009,2016,
            Gaussian, Inc.  All Rights Reserved.
  
 This is part of the Gaussian(R) 16 program.  It is based on
 the Gaussian(R) 09 system (copyright 2009, Gaussian, Inc.),
 the Gaussian(R) 03 system (copyright 2003, Gaussian, Inc.),
 the Gaussian(R) 98 system (copyright 1998, Gaussian, Inc.),
 the Gaussian(R) 94 system (copyright 1995, Gaussian, Inc.),
 the Gaussian 92(TM) system (copyright 1992, Gaussian, Inc.),
 the Gaussian 90(TM) system (copyright 1990, Gaussian, Inc.),
 the Gaussian 88(TM) system (copyright 1988, Gaussian, Inc.),
 the Gaussian 86(TM) system (copyright 1986, Carnegie Mellon
 University), and the Gaussian 82(TM) system (copyright 1983,
 Carnegie Mellon University). Gaussian is a federally registered
 trademark of Gaussian, Inc.
  
 This software contains proprietary and confidential information,
 including trade secrets, belonging to Gaussian, Inc.
  
 This software is provided under written license and may be
 used, copied, transmitted, or stored only in accord with that
 written license.
  
 The following legend is applicable only to US Government
 contracts under FAR:
  
                    RESTRICTED RIGHTS LEGEND
  
 Use, reproduction and disclosure by the US Government is
 subject to restrictions as set forth in subparagraphs (a)
 and (c) of the Commercial Computer Software - Restricted
 Rights clause in FAR 52.227-19.
  
 Gaussian, Inc.
 340 Quinnipiac St., Bldg. 40, Wallingford CT 06492
  
  
 ---------------------------------------------------------------
 Warning -- This program may not be used in any manner that
 competes with the business of Gaussian, Inc. or will provide
 assistance to any competitor of Gaussian, Inc.  The licensee
 of this program is prohibited from giving any competitor of
 Gaussian, Inc. access to this program.  By using this program,
 the user acknowledges that Gaussian, Inc. is engaged in the
 business of creating and licensing software in the field of
 computational chemistry and represents and warrants to the
 licensee that it is not a competitor of Gaussian, Inc. and that
 it will not use this program in any manner prohibited above.
 ---------------------------------------------------------------
  

 Cite this work as:
 Gaussian 16, Revision A.03,
 M. J. Frisch, G. W. Trucks, H. B. Schlegel, G. E. Scuseria, 
 M. A. Robb, J. R. Cheeseman, G. Scalmani, V. Barone, 
 G. A. Petersson, H. Nakatsuji, X. Li, M. Caricato, A. V. Marenich, 
 J. Bloino, B. G. Janesko, R. Gomperts, B. Mennucci, H. P. Hratchian, 
 J. V. Ortiz, A. F. Izmaylov, J. L. Sonnenberg, D. Williams-Young, 
 F. Ding, F. Lipparini, F. Egidi, J. Goings, B. Peng, A. Petrone, 
 T. Henderson, D. Ranasinghe, V. G. Zakrzewski, J. Gao, N. Rega, 
 G. Zheng, W. Liang, M. Hada, M. Ehara, K. Toyota, R. Fukuda, 
 J. Hasegawa, M. Ishida, T. Nakajima, Y. Honda, O. Kitao, H. Nakai, 
 T. Vreven, K. Throssell, J. A. Montgomery, Jr., J. E. Peralta, 
 F. Ogliaro, M. J. Bearpark, J. J. Heyd, E. N. Brothers, K. N. Kudin, 
 V. N. Staroverov, T. A. Keith, R. Kobayashi, J. Normand, 
 K. Raghavachari, A. P. Rendell, J. C. Burant, S. S. Iyengar, 
 J. Tomasi, M. Cossi, J. M. Millam, M. Klene, C. Adamo, R. Cammi, 
 J. W. Ochterski, R. L. Martin, K. Morokuma, O. Farkas, 
 J. B. Foresman, and D. J. Fox, Gaussian, Inc., Wallingford CT, 2016.
 
 ******************************************
 Gaussian 16:  ES64L-G16RevA.03 25-Dec-2016
                18-Jul-2023 
 ******************************************
 ---------------------------------------------
 # b3lyp/6-311g* opt freq scrf(solvent=ch2cl2)
 ---------------------------------------------
 1/18=20,19=15,26=3,38=1/1,3;
 2/9=110,12=2,17=6,18=5,40=1/2;
 3/5=4,6=6,7=1,11=2,25=1,30=1,70=2201,71=1,72=9,74=-5/1,2,3;
 4//1;
 5/5=2,38=5,53=9/2;
 6/7=2,8=2,9=2,10=2,28=1/1;
 7//1,2,3,16;
 1/18=20,19=15,26=3/3(2);
 2/9=110/2;
 99//99;
 2/9=110/2;
 3/5=4,6=6,7=1,11=2,25=1,30=1,70=2205,71=1,72=9,74=-5/1,2,3;
 4/5=5,16=3,69=1/1;
 5/5=2,38=5,53=9/2;
 7//1,2,3,16;
 1/18=20,19=15,26=3/3(-5);
 2/9=110/2;
 6/7=2,8=2,9=2,10=2,19=2,28=1/1;
 99/9=1/99;
 -------------------
 Title Card Required
 -------------------
 Symbolic Z-matrix:
 Charge =  0 Multiplicity = 1
 C                    -0.92989  -0.12977   0.94249 
 C                     0.172    -0.28885   0.09133 
 C                     0.80862   0.83682  -0.44858 
 C                     0.34335   2.12157  -0.13733 
 C                    -0.75853   2.28065   0.71382 
 C                    -1.39516   1.15498   1.25373 
 H                    -1.41597  -0.98924   1.35472 
 H                     0.52723  -1.26978  -0.14631 
 C                     2.01948   0.66201  -1.38391 
 H                     1.68068   0.59006  -2.3963 
 H                     2.67121   1.50484  -1.28496 
 H                     2.54786  -0.23032  -1.12035 
 H                    -2.23647   1.27644   1.9036 
 H                    -1.11377   3.26158   0.95146 
 N                     1.01114   3.30234  -0.70367 
 O                     1.98423   3.16186  -1.45534 
 O                     0.60025   4.43693  -0.42881 
 

 GradGradGradGradGradGradGradGradGradGradGradGradGradGradGradGradGradGrad
 Berny optimization.
 Initialization pass.
                           ----------------------------
                           !    Initial Parameters    !
                           ! (Angstroms and Degrees)  !
 --------------------------                            --------------------------
 ! Name  Definition              Value          Derivative Info.                !
 --------------------------------------------------------------------------------
 ! R1    R(1,2)                  1.4014         estimate D2E/DX2                !
 ! R2    R(1,6)                  1.4014         estimate D2E/DX2                !
 ! R3    R(1,7)                  1.07           estimate D2E/DX2                !
 ! R4    R(2,3)                  1.4014         estimate D2E/DX2                !
 ! R5    R(2,8)                  1.07           estimate D2E/DX2                !
 ! R6    R(3,4)                  1.4014         estimate D2E/DX2                !
 ! R7    R(3,9)                  1.54           estimate D2E/DX2                !
 ! R8    R(4,5)                  1.4014         estimate D2E/DX2                !
 ! R9    R(4,15)                 1.47           estimate D2E/DX2                !
 ! R10   R(5,6)                  1.4014         estimate D2E/DX2                !
 ! R11   R(5,14)                 1.07           estimate D2E/DX2                !
 ! R12   R(6,13)                 1.07           estimate D2E/DX2                !
 ! R13   R(9,10)                 1.07           estimate D2E/DX2                !
 ! R14   R(9,11)                 1.07           estimate D2E/DX2                !
 ! R15   R(9,12)                 1.07           estimate D2E/DX2                !
 ! R16   R(15,16)                1.2376         estimate D2E/DX2                !
 ! R17   R(15,17)                1.2376         estimate D2E/DX2                !
 ! A1    A(2,1,6)              120.0            estimate D2E/DX2                !
 ! A2    A(2,1,7)              120.0            estimate D2E/DX2                !
 ! A3    A(6,1,7)              120.0            estimate D2E/DX2                !
 ! A4    A(1,2,3)              120.0            estimate D2E/DX2                !
 ! A5    A(1,2,8)              120.0            estimate D2E/DX2                !
 ! A6    A(3,2,8)              120.0            estimate D2E/DX2                !
 ! A7    A(2,3,4)              120.0            estimate D2E/DX2                !
 ! A8    A(2,3,9)              120.0            estimate D2E/DX2                !
 ! A9    A(4,3,9)              120.0            estimate D2E/DX2                !
 ! A10   A(3,4,5)              120.0            estimate D2E/DX2                !
 ! A11   A(3,4,15)             120.0            estimate D2E/DX2                !
 ! A12   A(5,4,15)             120.0            estimate D2E/DX2                !
 ! A13   A(4,5,6)              120.0            estimate D2E/DX2                !
 ! A14   A(4,5,14)             120.0            estimate D2E/DX2                !
 ! A15   A(6,5,14)             120.0            estimate D2E/DX2                !
 ! A16   A(1,6,5)              120.0            estimate D2E/DX2                !
 ! A17   A(1,6,13)             120.0            estimate D2E/DX2                !
 ! A18   A(5,6,13)             120.0            estimate D2E/DX2                !
 ! A19   A(3,9,10)             109.4712         estimate D2E/DX2                !
 ! A20   A(3,9,11)             109.4712         estimate D2E/DX2                !
 ! A21   A(3,9,12)             109.4712         estimate D2E/DX2                !
 ! A22   A(10,9,11)            109.4712         estimate D2E/DX2                !
 ! A23   A(10,9,12)            109.4712         estimate D2E/DX2                !
 ! A24   A(11,9,12)            109.4712         estimate D2E/DX2                !
 ! A25   A(4,15,16)            120.0            estimate D2E/DX2                !
 ! A26   A(4,15,17)            120.0            estimate D2E/DX2                !
 ! A27   A(16,15,17)           120.0            estimate D2E/DX2                !
 ! D1    D(6,1,2,3)              0.0            estimate D2E/DX2                !
 ! D2    D(6,1,2,8)           -179.9998         estimate D2E/DX2                !
 ! D3    D(7,1,2,3)            179.9998         estimate D2E/DX2                !
 ! D4    D(7,1,2,8)              0.0            estimate D2E/DX2                !
 ! D5    D(2,1,6,5)              0.0            estimate D2E/DX2                !
 ! D6    D(2,1,6,13)          -179.9999         estimate D2E/DX2                !
 ! D7    D(7,1,6,5)           -179.9998         estimate D2E/DX2                !
 ! D8    D(7,1,6,13)             0.0002         estimate D2E/DX2                !
 ! D9    D(1,2,3,4)              0.0001         estimate D2E/DX2                !
 ! D10   D(1,2,3,9)           -179.9999         estimate D2E/DX2                !
 ! D11   D(8,2,3,4)            179.9999         estimate D2E/DX2                !
 ! D12   D(8,2,3,9)             -0.0001         estimate D2E/DX2                !
 ! D13   D(2,3,4,5)             -0.0001         estimate D2E/DX2                !
 ! D14   D(2,3,4,15)          -180.0            estimate D2E/DX2                !
 ! D15   D(9,3,4,5)            179.9999         estimate D2E/DX2                !
 ! D16   D(9,3,4,15)             0.0            estimate D2E/DX2                !
 ! D17   D(2,3,9,10)            90.0            estimate D2E/DX2                !
 ! D18   D(2,3,9,11)          -150.0            estimate D2E/DX2                !
 ! D19   D(2,3,9,12)           -30.0            estimate D2E/DX2                !
 ! D20   D(4,3,9,10)           -90.0            estimate D2E/DX2                !
 ! D21   D(4,3,9,11)            30.0            estimate D2E/DX2                !
 ! D22   D(4,3,9,12)           150.0            estimate D2E/DX2                !
 ! D23   D(3,4,5,6)              0.0001         estimate D2E/DX2                !
 ! D24   D(3,4,5,14)           180.0            estimate D2E/DX2                !
 ! D25   D(15,4,5,6)           179.9999         estimate D2E/DX2                !
 ! D26   D(15,4,5,14)           -0.0002         estimate D2E/DX2                !
 ! D27   D(3,4,15,16)           -0.0002         estimate D2E/DX2                !
 ! D28   D(3,4,15,17)          179.9999         estimate D2E/DX2                !
 ! D29   D(5,4,15,16)          179.9999         estimate D2E/DX2                !
 ! D30   D(5,4,15,17)            0.0001         estimate D2E/DX2                !
 ! D31   D(4,5,6,1)              0.0            estimate D2E/DX2                !
 ! D32   D(4,5,6,13)           179.9999         estimate D2E/DX2                !
 ! D33   D(14,5,6,1)          -179.9999         estimate D2E/DX2                !
 ! D34   D(14,5,6,13)            0.0            estimate D2E/DX2                !
 --------------------------------------------------------------------------------
 Trust Radius=3.00D-01 FncErr=1.00D-07 GrdErr=1.00D-06 EigMax=2.50D+02 EigMin=1.00D-04
 Number of steps in this run=     88 maximum allowed number of steps=    102.
 GradGradGradGradGradGradGradGradGradGradGradGradGradGradGradGradGradGrad

                          Input orientation:                          
 ---------------------------------------------------------------------
 Center     Atomic      Atomic             Coordinates (Angstroms)
 Number     Number       Type             X           Y           Z
 ---------------------------------------------------------------------
      1          6           0       -0.929891   -0.129767    0.942486
      2          6           0        0.171996   -0.288846    0.091333
      3          6           0        0.808618    0.836824   -0.448577
      4          6           0        0.343354    2.121572   -0.137333
      5          6           0       -0.758534    2.280651    0.713819
      6          6           0       -1.395156    1.154982    1.253729
      7          1           0       -1.415967   -0.989241    1.354717
      8          1           0        0.527234   -1.269780   -0.146310
      9          6           0        2.019481    0.662012   -1.383911
     10          1           0        1.680684    0.590056   -2.396304
     11          1           0        2.671213    1.504836   -1.284956
     12          1           0        2.547861   -0.230317   -1.120349
     13          1           0       -2.236470    1.276442    1.903604
     14          1           0       -1.113773    3.261585    0.951461
     15          7           0        1.011138    3.302344   -0.703673
     16          8           0        1.984235    3.161859   -1.455339
     17          8           0        0.600255    4.436927   -0.428809
 ---------------------------------------------------------------------
                    Distance matrix (angstroms):
                    1          2          3          4          5
     1  C    0.000000
     2  C    1.401400   0.000000
     3  C    2.427296   1.401400   0.000000
     4  C    2.802800   2.427296   1.401400   0.000000
     5  C    2.427296   2.802800   2.427296   1.401400   0.000000
     6  C    1.401400   2.427296   2.802800   2.427296   1.401400
     7  H    1.070000   2.146700   3.396345   3.872800   3.396345
     8  H    2.146700   1.070000   2.146700   3.396345   3.872800
     9  C    3.838989   2.548270   1.540000   2.548270   3.838989
    10  H    4.298926   3.039234   2.148263   3.039234   4.298925
    11  H    4.538874   3.370097   2.148263   2.667646   4.044769
    12  H    4.044769   2.667646   2.148263   3.370097   4.538874
    13  H    2.146700   3.396345   3.872800   3.396345   2.146700
    14  H    3.396345   3.872800   3.396345   2.146700   1.070000
    15  N    4.272800   3.772644   2.486942   1.470000   2.486942
    16  O    5.007643   4.193300   2.793105   2.347728   3.606182
    17  O    5.007643   4.773561   3.606182   2.347728   2.793105
                    6          7          8          9         10
     6  C    0.000000
     7  H    2.146700   0.000000
     8  H    3.396345   2.471400   0.000000
     9  C    4.342800   4.693509   2.736837   0.000000
    10  H    4.806524   5.114057   3.138774   1.070000   0.000000
    11  H    4.806525   5.467480   3.686686   1.070000   1.747303
    12  H    4.806525   4.734327   2.472280   1.070000   1.747303
    13  H    1.070000   2.471400   4.280590   5.412800   5.856998
    14  H    2.146700   4.280590   4.942800   4.693509   5.114058
    15  N    3.772644   5.342800   4.631321   2.907032   3.266466
    16  O    4.773561   6.057179   4.845186   2.501116   2.755310
    17  O    4.193300   6.057179   5.714162   4.144443   4.453851
                   11         12         13         14         15
    11  H    0.000000
    12  H    1.747303   0.000000
    13  H    5.856999   5.856999   0.000000
    14  H    4.734327   5.467480   2.471400   0.000000
    15  N    2.514911   3.874897   4.631321   2.693766   0.000000
    16  O    1.801859   3.454960   5.714161   3.924319   1.237600
    17  O    3.690395   5.104367   4.845186   2.494888   1.237600
                   16         17
    16  O    0.000000
    17  O    2.143586   0.000000
 Stoichiometry    C7H7NO2
 Framework group  C1[X(C7H7NO2)]
 Deg. of freedom    45
 Full point group                 C1      NOp   1
 Largest Abelian subgroup         C1      NOp   1
 Largest concise Abelian subgroup C1      NOp   1
                         Standard orientation:                         
 ---------------------------------------------------------------------
 Center     Atomic      Atomic             Coordinates (Angstroms)
 Number     Number       Type             X           Y           Z
 ---------------------------------------------------------------------
      1          6           0       -2.611564   -0.097970   -0.000001
      2          6           0       -1.818252    1.057269   -0.000001
      3          6           0       -0.421129    0.947860   -0.000000
      4          6           0        0.182681   -0.316789   -0.000001
      5          6           0       -0.610631   -1.472028    0.000000
      6          6           0       -2.007754   -1.362619    0.000000
      7          1           0       -3.678298   -0.014434    0.000002
      8          1           0       -2.279274    2.022856    0.000002
      9          6           0        0.450643    2.217353    0.000001
     10          1           0        0.652546    2.511369    1.008807
     11          1           0        1.372738    2.016809   -0.504401
     12          1           0       -0.067644    3.005932   -0.504401
     13          1           0       -2.613466   -2.244669   -0.000001
     14          1           0       -0.149609   -2.437615   -0.000000
     15          7           0        1.648194   -0.431554    0.000001
     16          8           0        2.348782    0.588657   -0.000002
     17          8           0        2.181429   -1.548386    0.000001
 ---------------------------------------------------------------------
 Rotational constants (GHZ):           2.3477841           1.2290204           0.8107004
 Standard basis: 6-311G(d) (5D, 7F)
 There are   211 symmetry adapted cartesian basis functions of A   symmetry.
 There are   201 symmetry adapted basis functions of A   symmetry.
   201 basis functions,   355 primitive gaussians,   211 cartesian basis functions
    36 alpha electrons       36 beta electrons
       nuclear repulsion energy       504.7641297536 Hartrees.
 NAtoms=   17 NActive=   17 NUniq=   17 SFac= 1.00D+00 NAtFMM=   60 NAOKFM=F Big=F
 Integral buffers will be    131072 words long.
 Raffenetti 2 integral format.
 Two-electron integral symmetry is turned on.
 ------------------------------------------------------------------------------
 Polarizable Continuum Model (PCM)
 =================================
 Model                : PCM.
 Atomic radii         : UFF (Universal Force Field).
 Polarization charges : Total charges.
 Charge compensation  : None.
 Solution method      : On-the-fly selection.
 Cavity type          : Scaled VdW (van der Waals Surface) (Alpha=1.100).
 Cavity algorithm     : GePol (No added spheres)
                        Default sphere list used, NSphG=   17.
                        Lebedev-Laikov grids with approx.  5.0 points / Ang**2.
                        Smoothing algorithm: York/Karplus (Gamma=1.0000).
                        Polarization charges: spherical gaussians, with
                                              point-specific exponents (IZeta= 3).
                        Self-potential: point-specific (ISelfS= 7).
                        Self-field    : sphere-specific E.n sum rule (ISelfD= 2).
 1st derivatives      : Analytical E(r).r(x)/FMM algorithm (CHGder, D1EAlg=3).
                        Cavity 1st derivative terms included.
 Solvent              : Dichloromethane, Eps=   8.930000 Eps(inf)=   2.028346
 ------------------------------------------------------------------------------
 Spheres list:
 ISph  on   Nord     Re0    Alpha      Xe            Ye            Ze
    1   C      1    1.9255  1.100     -2.611564     -0.097970     -0.000001
    2   C      2    1.9255  1.100     -1.818252      1.057269     -0.000001
    3   C      3    1.9255  1.100     -0.421129      0.947860     -0.000000
    4   C      4    1.9255  1.100      0.182681     -0.316789     -0.000001
    5   C      5    1.9255  1.100     -0.610631     -1.472028      0.000000
    6   C      6    1.9255  1.100     -2.007754     -1.362619      0.000000
    7   H      7    1.4430  1.100     -3.678298     -0.014434      0.000002
    8   H      8    1.4430  1.100     -2.279274      2.022856      0.000002
    9   C      9    1.9255  1.100      0.450643      2.217353      0.000001
   10   H     10    1.4430  1.100      0.652546      2.511369      1.008807
   11   H     11    1.4430  1.100      1.372738      2.016809     -0.504401
   12   H     12    1.4430  1.100     -0.067644      3.005932     -0.504401
   13   H     13    1.4430  1.100     -2.613466     -2.244669     -0.000001
   14   H     14    1.4430  1.100     -0.149609     -2.437615     -0.000000
   15   N     15    1.8300  1.100      1.648194     -0.431554      0.000001
   16   O     16    1.7500  1.100      2.348782      0.588657     -0.000002
   17   O     17    1.7500  1.100      2.181429     -1.548386      0.000001
 ------------------------------------------------------------------------------
 One-electron integrals computed using PRISM.
 NBasis=   201 RedAO= T EigKep=  1.86D-04  NBF=   201
 NBsUse=   201 1.00D-06 EigRej= -1.00D+00 NBFU=   201
 ExpMin= 1.03D-01 ExpMax= 8.59D+03 ExpMxC= 1.30D+03 IAcc=3 IRadAn=         5 AccDes= 0.00D+00
 Harris functional with IExCor=  402 and IRadAn=       5 diagonalized for initial guess.
 HarFok:  IExCor=  402 AccDes= 0.00D+00 IRadAn=         5 IDoV= 1 UseB2=F ITyADJ=14
 ICtDFT=  3500011 ScaDFX=  1.000000  1.000000  1.000000  1.000000
 FoFCou: FMM=F IPFlag=           0 FMFlag=      100000 FMFlg1=           0
         NFxFlg=           0 DoJE=T BraDBF=F KetDBF=T FulRan=T
         wScrn=  0.000000 ICntrl=       500 IOpCl=  0 I1Cent=   200000004 NGrid=           0
         NMat0=    1 NMatS0=      1 NMatT0=    0 NMatD0=    1 NMtDS0=    0 NMtDT0=    0
 Petite list used in FoFCou.
 Requested convergence on RMS density matrix=1.00D-08 within 128 cycles.
 Requested convergence on MAX density matrix=1.00D-06.
 Requested convergence on             energy=1.00D-06.
 No special actions if energy rises.
 Inv3:  Mode=1 IEnd=     6447468.
 Iteration    1 A*A^-1 deviation from unit magnitude is 3.55D-15 for    998.
 Iteration    1 A*A^-1 deviation from orthogonality  is 2.11D-15 for   1265    998.
 Iteration    1 A^-1*A deviation from unit magnitude is 3.11D-15 for    998.
 Iteration    1 A^-1*A deviation from orthogonality  is 2.58D-15 for   1133    105.
 Error on total polarization charges =  0.00858
 SCF Done:  E(RB3LYP) =  -476.166460415     A.U. after   14 cycles
            NFock= 14  Conv=0.44D-08     -V/T= 2.0033

 **********************************************************************

            Population analysis using the SCF density.

 **********************************************************************

 Orbital symmetries:
       Occupied  (A) (A) (A) (A) (A) (A) (A) (A) (A) (A) (A) (A)
                 (A) (A) (A) (A) (A) (A) (A) (A) (A) (A) (A) (A)
                 (A) (A) (A) (A) (A) (A) (A) (A) (A) (A) (A) (A)
       Virtual   (A) (A) (A) (A) (A) (A) (A) (A) (A) (A) (A) (A)
                 (A) (A) (A) (A) (A) (A) (A) (A) (A) (A) (A) (A)
                 (A) (A) (A) (A) (A) (A) (A) (A) (A) (A) (A) (A)
                 (A) (A) (A) (A) (A) (A) (A) (A) (A) (A) (A) (A)
                 (A) (A) (A) (A) (A) (A) (A) (A) (A) (A) (A) (A)
                 (A) (A) (A) (A) (A) (A) (A) (A) (A) (A) (A) (A)
                 (A) (A) (A) (A) (A) (A) (A) (A) (A) (A) (A) (A)
                 (A) (A) (A) (A) (A) (A) (A) (A) (A) (A) (A) (A)
                 (A) (A) (A) (A) (A) (A) (A) (A) (A) (A) (A) (A)
                 (A) (A) (A) (A) (A) (A) (A) (A) (A) (A) (A) (A)
                 (A) (A) (A) (A) (A) (A) (A) (A) (A) (A) (A) (A)
                 (A) (A) (A) (A) (A) (A) (A) (A) (A) (A) (A) (A)
                 (A) (A) (A) (A) (A) (A) (A) (A) (A) (A) (A) (A)
                 (A) (A) (A) (A) (A) (A) (A) (A) (A)
 The electronic state is 1-A.
 Alpha  occ. eigenvalues --  -19.15679 -19.15470 -14.55920 -10.24444 -10.21674
 Alpha  occ. eigenvalues --  -10.20523 -10.19987 -10.19486 -10.19343 -10.15633
 Alpha  occ. eigenvalues --   -1.23529  -1.05509  -0.89595  -0.81582  -0.78961
 Alpha  occ. eigenvalues --   -0.72658  -0.68872  -0.62498  -0.60643  -0.55927
 Alpha  occ. eigenvalues --   -0.54327  -0.52563  -0.50825  -0.48575  -0.46535
 Alpha  occ. eigenvalues --   -0.43288  -0.42746  -0.40424  -0.38854  -0.38155
 Alpha  occ. eigenvalues --   -0.36436  -0.32339  -0.32016  -0.28823  -0.28594
 Alpha  occ. eigenvalues --   -0.27028
 Alpha virt. eigenvalues --   -0.10376  -0.03052  -0.01037   0.04978   0.06866
 Alpha virt. eigenvalues --    0.08461   0.10442   0.11229   0.12566   0.13360
 Alpha virt. eigenvalues --    0.15499   0.15641   0.19984   0.23364   0.24241
 Alpha virt. eigenvalues --    0.25990   0.26629   0.28988   0.29900   0.34602
 Alpha virt. eigenvalues --    0.35179   0.36766   0.37480   0.37926   0.39532
 Alpha virt. eigenvalues --    0.41225   0.42156   0.42983   0.43828   0.45449
 Alpha virt. eigenvalues --    0.46196   0.47206   0.51589   0.52742   0.52918
 Alpha virt. eigenvalues --    0.56091   0.58911   0.59284   0.60215   0.60561
 Alpha virt. eigenvalues --    0.61705   0.62334   0.62520   0.65645   0.67496
 Alpha virt. eigenvalues --    0.68394   0.69838   0.73828   0.75844   0.77220
 Alpha virt. eigenvalues --    0.77770   0.79241   0.81250   0.82608   0.83317
 Alpha virt. eigenvalues --    0.85587   0.88159   0.88689   0.95804   0.97510
 Alpha virt. eigenvalues --    0.98484   0.99444   1.00886   1.03819   1.08795
 Alpha virt. eigenvalues --    1.15036   1.16846   1.17514   1.19306   1.20019
 Alpha virt. eigenvalues --    1.21986   1.25161   1.34906   1.40582   1.41856
 Alpha virt. eigenvalues --    1.44337   1.47472   1.50531   1.51871   1.53499
 Alpha virt. eigenvalues --    1.55922   1.59531   1.59920   1.66983   1.68571
 Alpha virt. eigenvalues --    1.68849   1.70229   1.78397   1.81004   1.81615
 Alpha virt. eigenvalues --    1.84742   1.88388   1.89831   1.90574   1.91036
 Alpha virt. eigenvalues --    1.93799   2.06969   2.10065   2.15244   2.15793
 Alpha virt. eigenvalues --    2.22998   2.23934   2.26933   2.27353   2.30673
 Alpha virt. eigenvalues --    2.34579   2.37508   2.39671   2.46042   2.48555
 Alpha virt. eigenvalues --    2.51498   2.55048   2.61687   2.66167   2.67876
 Alpha virt. eigenvalues --    2.71286   2.77709   2.78899   2.80677   2.82419
 Alpha virt. eigenvalues --    2.83062   2.85568   2.90644   3.00894   3.04074
 Alpha virt. eigenvalues --    3.09061   3.10760   3.17904   3.19638   3.21937
 Alpha virt. eigenvalues --    3.25158   3.26048   3.27316   3.28998   3.32313
 Alpha virt. eigenvalues --    3.34366   3.45281   3.47283   3.55411   3.60253
 Alpha virt. eigenvalues --    3.60974   3.69836   3.71272   3.82710   3.92844
 Alpha virt. eigenvalues --    4.07375   4.40049   4.58520   4.76219   4.80816
 Alpha virt. eigenvalues --    4.85148   4.91215   4.98206   5.57220   6.01322
 Alpha virt. eigenvalues --   23.19637  23.58296  23.77879  23.78131  23.98184
 Alpha virt. eigenvalues --   23.99594  24.08980  35.34440  49.79960  49.94104
          Condensed to atoms (all electrons):
               1          2          3          4          5          6
     1  C    4.945631   0.511862  -0.022337  -0.049628  -0.038138   0.506644
     2  C    0.511862   4.995317   0.511006  -0.023225  -0.045724  -0.045592
     3  C   -0.022337   0.511006   5.034349   0.414344  -0.058134  -0.040643
     4  C   -0.049628  -0.023225   0.414344   5.128566   0.407688  -0.028624
     5  C   -0.038138  -0.045724  -0.058134   0.407688   5.101075   0.500388
     6  C    0.506644  -0.045592  -0.040643  -0.028624   0.500388   4.974583
     7  H    0.398987  -0.042102   0.007091  -0.000868   0.006588  -0.042049
     8  H   -0.039934   0.400348  -0.042818   0.006374  -0.000640   0.005944
     9  C    0.005125  -0.055345   0.306312  -0.051279   0.006952   0.000306
    10  H   -0.000197  -0.003105  -0.036806  -0.004687  -0.000212   0.000046
    11  H   -0.000204   0.005229  -0.033548  -0.005039  -0.000267  -0.000015
    12  H    0.000880  -0.006971  -0.045442   0.005809  -0.000192  -0.000063
    13  H   -0.041719   0.006451  -0.001086   0.006623  -0.039428   0.400852
    14  H    0.006084  -0.001051   0.008919  -0.049468   0.377625  -0.029405
    15  N   -0.000422   0.004961  -0.028303   0.228895  -0.040228   0.003865
    16  O    0.000045   0.000261  -0.008476  -0.091393   0.008850  -0.000096
    17  O    0.000057  -0.000139   0.003918  -0.126352   0.020917   0.000904
               7          8          9         10         11         12
     1  C    0.398987  -0.039934   0.005125  -0.000197  -0.000204   0.000880
     2  C   -0.042102   0.400348  -0.055345  -0.003105   0.005229  -0.006971
     3  C    0.007091  -0.042818   0.306312  -0.036806  -0.033548  -0.045442
     4  C   -0.000868   0.006374  -0.051279  -0.004687  -0.005039   0.005809
     5  C    0.006588  -0.000640   0.006952  -0.000212  -0.000267  -0.000192
     6  C   -0.042049   0.005944   0.000306   0.000046  -0.000015  -0.000063
     7  H    0.452275  -0.005283  -0.000299   0.000015   0.000014  -0.000035
     8  H   -0.005283   0.450950  -0.005819   0.000252   0.000013   0.002076
     9  C   -0.000299  -0.005819   5.387964   0.382716   0.382954   0.378302
    10  H    0.000015   0.000252   0.382716   0.465060  -0.023090  -0.024849
    11  H    0.000014   0.000013   0.382954  -0.023090   0.431614  -0.027059
    12  H   -0.000035   0.002076   0.378302  -0.024849  -0.027059   0.494670
    13  H   -0.005625  -0.000280   0.000030  -0.000001  -0.000003   0.000001
    14  H   -0.000177   0.000044  -0.000254   0.000009  -0.000036   0.000004
    15  N    0.000011  -0.000064  -0.018279   0.000764  -0.008333   0.000313
    16  O   -0.000000   0.000014  -0.050365   0.002257   0.010519   0.003545
    17  O    0.000000   0.000004  -0.000362   0.000028  -0.000220   0.000048
              13         14         15         16         17
     1  C   -0.041719   0.006084  -0.000422   0.000045   0.000057
     2  C    0.006451  -0.001051   0.004961   0.000261  -0.000139
     3  C   -0.001086   0.008919  -0.028303  -0.008476   0.003918
     4  C    0.006623  -0.049468   0.228895  -0.091393  -0.126352
     5  C   -0.039428   0.377625  -0.040228   0.008850   0.020917
     6  C    0.400852  -0.029405   0.003865  -0.000096   0.000904
     7  H   -0.005625  -0.000177   0.000011  -0.000000   0.000000
     8  H   -0.000280   0.000044  -0.000064   0.000014   0.000004
     9  C    0.000030  -0.000254  -0.018279  -0.050365  -0.000362
    10  H   -0.000001   0.000009   0.000764   0.002257   0.000028
    11  H   -0.000003  -0.000036  -0.008333   0.010519  -0.000220
    12  H    0.000001   0.000004   0.000313   0.003545   0.000048
    13  H    0.450389  -0.006487  -0.000099   0.000003  -0.000065
    14  H   -0.006487   0.433126  -0.008777   0.000732   0.023922
    15  N   -0.000099  -0.008777   6.123676   0.272028   0.317637
    16  O    0.000003   0.000732   0.272028   8.282663  -0.123127
    17  O   -0.000065   0.023922   0.317637  -0.123127   8.178034
 Mulliken charges:
               1
     1  C   -0.182737
     2  C   -0.212181
     3  C    0.031653
     4  C    0.232263
     5  C   -0.207121
     6  C   -0.207047
     7  H    0.231457
     8  H    0.228817
     9  C   -0.668661
    10  H    0.241799
    11  H    0.267469
    12  H    0.218963
    13  H    0.230444
    14  H    0.245190
    15  N    0.152354
    16  O   -0.307458
    17  O   -0.295204
 Sum of Mulliken charges =  -0.00000
 Mulliken charges with hydrogens summed into heavy atoms:
               1
     1  C    0.048720
     2  C    0.016637
     3  C    0.031653
     4  C    0.232263
     5  C    0.038069
     6  C    0.023397
     9  C    0.059569
    15  N    0.152354
    16  O   -0.307458
    17  O   -0.295204
 Electronic spatial extent (au):  <R**2>=           1359.5365
 Charge=             -0.0000 electrons
 Dipole moment (field-independent basis, Debye):
    X=             -5.5851    Y=              0.8346    Z=              0.0270  Tot=              5.6472
 Quadrupole moment (field-independent basis, Debye-Ang):
   XX=            -60.6423   YY=            -54.4175   ZZ=            -59.1494
   XY=              2.8906   XZ=             -0.0375   YZ=              0.0900
 Traceless Quadrupole moment (field-independent basis, Debye-Ang):
   XX=             -2.5726   YY=              3.6523   ZZ=             -1.0797
   XY=              2.8906   XZ=             -0.0375   YZ=              0.0900
 Octapole moment (field-independent basis, Debye-Ang**2):
  XXX=            -38.9993  YYY=             -2.5750  ZZZ=              0.7157  XYY=            -11.1146
  XXY=              3.0125  XXZ=             -0.4875  XZZ=             13.7999  YZZ=              0.2487
  YYZ=              0.1177  XYZ=              0.2258
 Hexadecapole moment (field-independent basis, Debye-Ang**3):
 XXXX=          -1027.8813 YYYY=           -611.8786 ZZZZ=            -66.6189 XXXY=             10.8964
 XXXZ=             -1.0052 YYYX=              8.9103 YYYZ=             -0.6784 ZZZX=              0.4641
 ZZZY=              1.8316 XXYY=           -279.9163 XXZZ=           -193.6726 YYZZ=           -120.4495
 XXYZ=             -0.8661 YYXZ=              1.3599 ZZXY=             -3.9300
 N-N= 5.047641297536D+02 E-N=-2.121461908063D+03  KE= 4.746002307969D+02
 D1PCM: PCM CHGder 1st derivatives, ID1Alg=3 FixD1E=F DoIter=F DoCFld=F I1PDM=0.
 Calling FoFJK, ICntrl=      2127 FMM=F ISym2X=0 I1Cent= 0 IOpClX= 0 NMat=1 NMatS=1 NMatT=0.
 ***** Axes restored to original set *****
 -------------------------------------------------------------------
 Center     Atomic                   Forces (Hartrees/Bohr)
 Number     Number              X              Y              Z
 -------------------------------------------------------------------
      1        6           0.009813584    0.011972643   -0.008498760
      2        6          -0.012156828    0.019612315    0.008936993
      3        6           0.025306227   -0.003900496   -0.018135451
      4        6          -0.008561972   -0.007707480    0.005103674
      5        6          -0.001197281   -0.008375341    0.001472718
      6        6           0.015126467    0.002816745   -0.011889325
      7        1          -0.004705843   -0.008268271    0.003971884
      8        1           0.004517594   -0.008196488   -0.002895562
      9        6          -0.013450708   -0.010932622    0.027373016
     10        1          -0.002200568    0.000719641   -0.016208636
     11        1           0.008581430   -0.007255672   -0.002459590
     12        1           0.004023067   -0.016525295    0.001427021
     13        1          -0.007345663    0.002492765    0.005656518
     14        1          -0.002032869    0.008623191    0.001272207
     15        7           0.007138576    0.024450747   -0.006951716
     16        8          -0.015263409    0.016325522    0.004324097
     17        8          -0.007591805   -0.015851904    0.007500912
 -------------------------------------------------------------------
 Cartesian Forces:  Max     0.027373016 RMS     0.011039848

 GradGradGradGradGradGradGradGradGradGradGradGradGradGradGradGradGradGrad
 Berny optimization.
 FormGI is forming the generalized inverse of G from B-inverse, IUseBI=4.
 Internal  Forces:  Max     0.076240444 RMS     0.018666297
 Search for a local minimum.
 Step number   1 out of a maximum of   88
 All quantities printed in internal units (Hartrees-Bohrs-Radians)
 Mixed Optimization -- RFO/linear search
 Second derivative matrix not updated -- first step.
 ITU=  0
     Eigenvalues ---    0.00237   0.00766   0.00766   0.01336   0.01671
     Eigenvalues ---    0.02070   0.02070   0.02070   0.02070   0.02070
     Eigenvalues ---    0.02070   0.02070   0.07243   0.07243   0.16000
     Eigenvalues ---    0.16000   0.16000   0.16000   0.16000   0.16000
     Eigenvalues ---    0.16000   0.22000   0.22493   0.24487   0.25000
     Eigenvalues ---    0.25000   0.25000   0.25000   0.28519   0.35740
     Eigenvalues ---    0.37230   0.37230   0.37230   0.37230   0.37230
     Eigenvalues ---    0.37230   0.37230   0.41369   0.41539   0.45389
     Eigenvalues ---    0.45389   0.45389   0.45389   0.87992   0.87992
 RFO step:  Lambda=-8.05960871D-02 EMin= 2.36824298D-03
 Linear search not attempted -- first point.
 Maximum step size (   0.300) exceeded in Quadratic search.
    -- Step size scaled by   0.627
 Iteration  1 RMS(Cart)=  0.16626739 RMS(Int)=  0.00999195
 Iteration  2 RMS(Cart)=  0.01727055 RMS(Int)=  0.00024078
 Iteration  3 RMS(Cart)=  0.00022190 RMS(Int)=  0.00022008
 Iteration  4 RMS(Cart)=  0.00000005 RMS(Int)=  0.00022008
 Variable       Old X    -DE/DX   Delta X   Delta X   Delta X     New X
                                 (Linear)    (Quad)   (Total)
    R1        2.64826  -0.01112   0.00000  -0.01399  -0.01395   2.63432
    R2        2.64826  -0.01326   0.00000  -0.01742  -0.01748   2.63078
    R3        2.02201   0.01031   0.00000   0.01427   0.01427   2.03628
    R4        2.64826  -0.00193   0.00000  -0.00133  -0.00123   2.64703
    R5        2.02201   0.00966   0.00000   0.01337   0.01337   2.03538
    R6        2.64826   0.04213   0.00000   0.05129   0.05135   2.69961
    R7        2.91018  -0.00469   0.00000  -0.00804  -0.00804   2.90214
    R8        2.64826  -0.00029   0.00000   0.00060   0.00056   2.64882
    R9        2.77790   0.01100   0.00000   0.01575   0.01575   2.79365
   R10        2.64826  -0.01869   0.00000  -0.02285  -0.02295   2.62532
   R11        2.02201   0.00886   0.00000   0.01227   0.01227   2.03428
   R12        2.02201   0.00949   0.00000   0.01314   0.01314   2.03515
   R13        2.02201   0.01599   0.00000   0.02213   0.02213   2.04414
   R14        2.02201  -0.00072   0.00000  -0.00099  -0.00099   2.02102
   R15        2.02201   0.01612   0.00000   0.02232   0.02232   2.04432
   R16        2.33873  -0.01648   0.00000  -0.01076  -0.01076   2.32797
   R17        2.33873  -0.01035   0.00000  -0.00675  -0.00675   2.33197
    A1        2.09440   0.00194   0.00000  -0.00185  -0.00188   2.09251
    A2        2.09440  -0.00095   0.00000   0.00098   0.00100   2.09539
    A3        2.09440  -0.00099   0.00000   0.00087   0.00088   2.09528
    A4        2.09440   0.01730   0.00000   0.03526   0.03539   2.12979
    A5        2.09440  -0.00700   0.00000  -0.01333  -0.01341   2.08099
    A6        2.09440  -0.01030   0.00000  -0.02193  -0.02201   2.07239
    A7        2.09440  -0.02445   0.00000  -0.04248  -0.04233   2.05206
    A8        2.09440  -0.04955   0.00000  -0.09593  -0.09601   1.99839
    A9        2.09440   0.07401   0.00000   0.13842   0.13834   2.23273
   A10        2.09440  -0.00465   0.00000  -0.00489  -0.00490   2.08950
   A11        2.09440   0.07624   0.00000   0.14264   0.14259   2.23699
   A12        2.09440  -0.07159   0.00000  -0.13775  -0.13777   1.95663
   A13        2.09440   0.01074   0.00000   0.02165   0.02149   2.11588
   A14        2.09440  -0.00663   0.00000  -0.01411  -0.01405   2.08035
   A15        2.09440  -0.00411   0.00000  -0.00753  -0.00747   2.08693
   A16        2.09440  -0.00087   0.00000  -0.00769  -0.00786   2.08654
   A17        2.09440   0.00188   0.00000   0.00759   0.00768   2.10207
   A18        2.09440  -0.00100   0.00000   0.00009   0.00017   2.09457
   A19        1.91063   0.00222   0.00000   0.00563   0.00538   1.91602
   A20        1.91063   0.01532   0.00000   0.04241   0.04226   1.95289
   A21        1.91063  -0.00595   0.00000  -0.01784  -0.01780   1.89283
   A22        1.91063  -0.00484   0.00000  -0.00794  -0.00835   1.90229
   A23        1.91063  -0.00231   0.00000  -0.01102  -0.01108   1.89955
   A24        1.91063  -0.00443   0.00000  -0.01125  -0.01112   1.89952
   A25        2.09440   0.03547   0.00000   0.06728   0.06712   2.16151
   A26        2.09440  -0.03650   0.00000  -0.06923  -0.06940   2.02500
   A27        2.09440   0.00103   0.00000   0.00195   0.00179   2.09619
    D1       -0.00000   0.00009   0.00000   0.00061   0.00065   0.00065
    D2       -3.14159  -0.00114   0.00000  -0.00697  -0.00686   3.13473
    D3        3.14159   0.00062   0.00000   0.00383   0.00387  -3.13773
    D4        0.00000  -0.00061   0.00000  -0.00375  -0.00364  -0.00364
    D5        0.00000   0.00093   0.00000   0.00573   0.00576   0.00576
    D6       -3.14159   0.00016   0.00000   0.00094   0.00106  -3.14054
    D7       -3.14159   0.00040   0.00000   0.00251   0.00254  -3.13905
    D8        0.00000  -0.00036   0.00000  -0.00228  -0.00216  -0.00216
    D9        0.00000  -0.00180   0.00000  -0.01099  -0.01087  -0.01087
   D10       -3.14159  -0.00200   0.00000  -0.01237  -0.01206   3.12953
   D11        3.14159  -0.00057   0.00000  -0.00341  -0.00340   3.13819
   D12       -0.00000  -0.00077   0.00000  -0.00479  -0.00459  -0.00459
   D13       -0.00000   0.00247   0.00000   0.01503   0.01484   0.01484
   D14       -3.14159   0.00449   0.00000   0.02801   0.02872  -3.11287
   D15        3.14159   0.00268   0.00000   0.01641   0.01622  -3.12538
   D16        0.00000   0.00469   0.00000   0.02939   0.03010   0.03010
   D17        1.57080   0.00106   0.00000   0.01936   0.01921   1.59001
   D18       -2.61799   0.00586   0.00000   0.03906   0.03924  -2.57875
   D19       -0.52360   0.00617   0.00000   0.04033   0.04023  -0.48337
   D20       -1.57080   0.00085   0.00000   0.01798   0.01787  -1.55292
   D21        0.52360   0.00566   0.00000   0.03768   0.03791   0.56151
   D22        2.61799   0.00597   0.00000   0.03895   0.03889   2.65688
   D23        0.00000  -0.00145   0.00000  -0.00869  -0.00899  -0.00899
   D24        3.14159  -0.00017   0.00000  -0.00082  -0.00122   3.14037
   D25        3.14159  -0.00346   0.00000  -0.02167  -0.02077   3.12082
   D26       -0.00000  -0.00218   0.00000  -0.01380  -0.01300  -0.01300
   D27       -0.00000   0.00451   0.00000   0.03271   0.03270   0.03269
   D28        3.14159  -0.00023   0.00000  -0.00100  -0.00101   3.14058
   D29        3.14159   0.00652   0.00000   0.04569   0.04571  -3.09589
   D30        0.00000   0.00178   0.00000   0.01198   0.01200   0.01200
   D31       -0.00000  -0.00026   0.00000  -0.00169  -0.00151  -0.00151
   D32        3.14159   0.00051   0.00000   0.00310   0.00317  -3.13842
   D33       -3.14159  -0.00154   0.00000  -0.00956  -0.00931   3.13228
   D34        0.00000  -0.00077   0.00000  -0.00478  -0.00463  -0.00463
         Item               Value     Threshold  Converged?
 Maximum Force            0.076240     0.000450     NO 
 RMS     Force            0.018666     0.000300     NO 
 Maximum Displacement     0.800925     0.001800     NO 
 RMS     Displacement     0.177067     0.001200     NO 
 Predicted change in Energy=-3.885632D-02
 GradGradGradGradGradGradGradGradGradGradGradGradGradGradGradGradGradGrad

                          Input orientation:                          
 ---------------------------------------------------------------------
 Center     Atomic      Atomic             Coordinates (Angstroms)
 Number     Number       Type             X           Y           Z
 ---------------------------------------------------------------------
      1          6           0       -0.899617   -0.087388    0.909116
      2          6           0        0.195947   -0.245161    0.061685
      3          6           0        0.871647    0.850443   -0.490743
      4          6           0        0.390496    2.155972   -0.166852
      5          6           0       -0.709073    2.298357    0.690719
      6          6           0       -1.351972    1.190074    1.227773
      7          1           0       -1.393724   -0.952703    1.319248
      8          1           0        0.540925   -1.238213   -0.172681
      9          6           0        2.062897    0.478638   -1.385840
     10          1           0        1.733661    0.381288   -2.411620
     11          1           0        2.841289    1.210487   -1.338086
     12          1           0        2.456973   -0.472529   -1.053731
     13          1           0       -2.196921    1.322204    1.882323
     14          1           0       -1.063915    3.286113    0.930012
     15          7           0        0.899108    3.460685   -0.640679
     16          8           0        1.828841    3.585691   -1.439155
     17          8           0        0.309715    4.458183   -0.215903
 ---------------------------------------------------------------------
                    Distance matrix (angstroms):
                    1          2          3          4          5
     1  C    0.000000
     2  C    1.394020   0.000000
     3  C    2.444690   1.400748   0.000000
     4  C    2.802635   2.419817   1.428572   0.000000
     5  C    2.403285   2.772043   2.447648   1.401696   0.000000
     6  C    1.392148   2.411579   2.830747   2.431898   1.389257
     7  H    1.077553   2.146890   3.414573   3.880179   3.381299
     8  H    2.137719   1.077075   2.138464   3.397522   3.849062
     9  C    3.789947   2.470772   1.535745   2.663889   3.912453
    10  H    4.263930   2.978966   2.157069   3.161105   4.389375
    11  H    4.552886   3.328078   2.174192   2.876128   4.231380
    12  H    3.907403   2.531420   2.140203   3.459176   4.554641
    13  H    2.148739   3.390748   3.907699   3.404264   2.141608
    14  H    3.377564   3.848524   3.420151   2.143744   1.076493
    15  N    4.269203   3.836801   2.614689   1.478335   2.389534
    16  O    5.142992   4.426543   3.049145   2.394095   3.554518
    17  O    4.836358   4.712901   3.661569   2.304150   2.554357
                    6          7          8          9         10
     6  C    0.000000
     7  H    2.145135   0.000000
     8  H    3.382441   2.459722   0.000000
     9  C    4.358720   4.616760   2.595329   0.000000
    10  H    4.839468   5.047717   3.009694   1.081711   0.000000
    11  H    4.916043   5.447582   3.556119   1.069475   1.751253
    12  H    4.741051   4.548567   2.243605   1.081809   1.759559
    13  H    1.076956   2.477374   4.274877   5.434937   5.896842
    14  H    2.136590   4.269407   4.925543   4.798129   5.237456
    15  N    3.703262   5.345688   4.735712   3.286681   3.649027
    16  O    4.792604   6.212144   5.150994   3.116312   3.350067
    17  O    3.940296   5.876740   5.701250   4.503241   4.844571
                   11         12         13         14         15
    11  H    0.000000
    12  H    1.749600   0.000000
    13  H    5.980558   5.787936   0.000000
    14  H    4.970222   5.518992   2.459174   0.000000
    15  N    3.053167   4.250615   4.530346   2.520120   0.000000
    16  O    2.583961   4.124590   5.688791   3.751098   1.231907
    17  O    4.267984   5.442847   4.529915   2.138627   1.234026
                   16         17
    16  O    0.000000
    17  O    2.136664   0.000000
 Stoichiometry    C7H7NO2
 Framework group  C1[X(C7H7NO2)]
 Deg. of freedom    45
 Full point group                 C1      NOp   1
 Largest Abelian subgroup         C1      NOp   1
 Largest concise Abelian subgroup C1      NOp   1
                         Standard orientation:                         
 ---------------------------------------------------------------------
 Center     Atomic      Atomic             Coordinates (Angstroms)
 Number     Number       Type             X           Y           Z
 ---------------------------------------------------------------------
      1          6           0       -2.527631   -0.470167    0.019232
      2          6           0       -1.947008    0.797174    0.015276
      3          6           0       -0.558172    0.977928   -0.008329
      4          6           0        0.261000   -0.192427   -0.014820
      5          6           0       -0.337827   -1.459770   -0.015790
      6          6           0       -1.719527   -1.603604    0.000135
      7          1           0       -3.600223   -0.572375    0.034041
      8          1           0       -2.582373    1.666846    0.023743
      9          6           0       -0.107217    2.445868   -0.025859
     10          1           0        0.035326    2.797140    0.987249
     11          1           0        0.803521    2.576766   -0.571018
     12          1           0       -0.882799    3.036736   -0.494536
     13          1           0       -2.158726   -2.586932    0.002030
     14          1           0        0.287495   -2.335996   -0.021845
     15          7           0        1.737020   -0.274541   -0.004927
     16          8           0        2.478540    0.707960    0.044395
     17          8           0        2.216077   -1.411761   -0.012425
 ---------------------------------------------------------------------
 Rotational constants (GHZ):           2.1778165           1.2328412           0.7911913
 Standard basis: 6-311G(d) (5D, 7F)
 There are   211 symmetry adapted cartesian basis functions of A   symmetry.
 There are   201 symmetry adapted basis functions of A   symmetry.
   201 basis functions,   355 primitive gaussians,   211 cartesian basis functions
    36 alpha electrons       36 beta electrons
       nuclear repulsion energy       500.0559276705 Hartrees.
 NAtoms=   17 NActive=   17 NUniq=   17 SFac= 1.00D+00 NAtFMM=   60 NAOKFM=F Big=F
 Integral buffers will be    131072 words long.
 Raffenetti 2 integral format.
 Two-electron integral symmetry is turned on.
 ------------------------------------------------------------------------------
 Polarizable Continuum Model (PCM)
 =================================
 Model                : PCM.
 Atomic radii         : UFF (Universal Force Field).
 Polarization charges : Total charges.
 Charge compensation  : None.
 Solution method      : On-the-fly selection.
 Cavity type          : Scaled VdW (van der Waals Surface) (Alpha=1.100).
 Cavity algorithm     : GePol (No added spheres)
                        Default sphere list used, NSphG=   17.
                        Lebedev-Laikov grids with approx.  5.0 points / Ang**2.
                        Smoothing algorithm: York/Karplus (Gamma=1.0000).
                        Polarization charges: spherical gaussians, with
                                              point-specific exponents (IZeta= 3).
                        Self-potential: point-specific (ISelfS= 7).
                        Self-field    : sphere-specific E.n sum rule (ISelfD= 2).
 1st derivatives      : Analytical E(r).r(x)/FMM algorithm (CHGder, D1EAlg=3).
                        Cavity 1st derivative terms included.
 Solvent              : Dichloromethane, Eps=   8.930000 Eps(inf)=   2.028346
 ------------------------------------------------------------------------------
 Spheres list:
 ISph  on   Nord     Re0    Alpha      Xe            Ye            Ze
    1   C      1    1.9255  1.100     -2.527631     -0.470167      0.019232
    2   C      2    1.9255  1.100     -1.947008      0.797174      0.015276
    3   C      3    1.9255  1.100     -0.558172      0.977928     -0.008329
    4   C      4    1.9255  1.100      0.261000     -0.192427     -0.014820
    5   C      5    1.9255  1.100     -0.337827     -1.459770     -0.015790
    6   C      6    1.9255  1.100     -1.719527     -1.603604      0.000135
    7   H      7    1.4430  1.100     -3.600223     -0.572375      0.034041
    8   H      8    1.4430  1.100     -2.582373      1.666846      0.023743
    9   C      9    1.9255  1.100     -0.107217      2.445868     -0.025859
   10   H     10    1.4430  1.100      0.035326      2.797140      0.987249
   11   H     11    1.4430  1.100      0.803521      2.576766     -0.571018
   12   H     12    1.4430  1.100     -0.882799      3.036736     -0.494536
   13   H     13    1.4430  1.100     -2.158726     -2.586932      0.002030
   14   H     14    1.4430  1.100      0.287495     -2.335996     -0.021845
   15   N     15    1.8300  1.100      1.737020     -0.274541     -0.004927
   16   O     16    1.7500  1.100      2.478540      0.707960      0.044395
   17   O     17    1.7500  1.100      2.216077     -1.411761     -0.012425
 ------------------------------------------------------------------------------
 One-electron integrals computed using PRISM.
 NBasis=   201 RedAO= T EigKep=  1.83D-04  NBF=   201
 NBsUse=   201 1.00D-06 EigRej= -1.00D+00 NBFU=   201
 Initial guess from the checkpoint file:  "/home/kimariyb/g16/scratch/Gau-9584.chk"
 B after Tr=    -0.000000   -0.000000    0.000000
         Rot=    0.997850   -0.000680   -0.000666   -0.065529 Ang=  -7.52 deg.
 ExpMin= 1.03D-01 ExpMax= 8.59D+03 ExpMxC= 1.30D+03 IAcc=2 IRadAn=         4 AccDes= 0.00D+00
 Harris functional with IExCor=  402 and IRadAn=       4 diagonalized for initial guess.
 HarFok:  IExCor=  402 AccDes= 0.00D+00 IRadAn=         4 IDoV= 1 UseB2=F ITyADJ=14
 ICtDFT=  3500011 ScaDFX=  1.000000  1.000000  1.000000  1.000000
 FoFCou: FMM=F IPFlag=           0 FMFlag=      100000 FMFlg1=           0
         NFxFlg=           0 DoJE=T BraDBF=F KetDBF=T FulRan=T
         wScrn=  0.000000 ICntrl=       500 IOpCl=  0 I1Cent=   200000004 NGrid=           0
         NMat0=    1 NMatS0=      1 NMatT0=    0 NMatD0=    1 NMtDS0=    0 NMtDT0=    0
 Petite list used in FoFCou.
 Requested convergence on RMS density matrix=1.00D-08 within 128 cycles.
 Requested convergence on MAX density matrix=1.00D-06.
 Requested convergence on             energy=1.00D-06.
 No special actions if energy rises.
 Inv3:  Mode=1 IEnd=     6714048.
 Iteration    1 A*A^-1 deviation from unit magnitude is 3.11D-15 for    403.
 Iteration    1 A*A^-1 deviation from orthogonality  is 1.78D-15 for   1364    481.
 Iteration    1 A^-1*A deviation from unit magnitude is 3.11D-15 for   1358.
 Iteration    1 A^-1*A deviation from orthogonality  is 1.66D-15 for   1089    992.
 Error on total polarization charges =  0.00832
 SCF Done:  E(RB3LYP) =  -476.173759745     A.U. after   13 cycles
            NFock= 13  Conv=0.84D-08     -V/T= 2.0035
 D1PCM: PCM CHGder 1st derivatives, ID1Alg=3 FixD1E=F DoIter=F DoCFld=F I1PDM=0.
 Calling FoFJK, ICntrl=      2127 FMM=F ISym2X=0 I1Cent= 0 IOpClX= 0 NMat=1 NMatS=1 NMatT=0.
 ***** Axes restored to original set *****
 -------------------------------------------------------------------
 Center     Atomic                   Forces (Hartrees/Bohr)
 Number     Number              X              Y              Z
 -------------------------------------------------------------------
      1        6           0.003460919    0.003167895   -0.003425593
      2        6          -0.008250859    0.011113372    0.006632594
      3        6           0.012824891    0.004907968   -0.008808144
      4        6          -0.005167378   -0.014977234    0.004234498
      5        6          -0.004389138   -0.007617337    0.003295037
      6        6           0.005746221    0.000010057   -0.004560122
      7        1          -0.001934239   -0.004405457    0.001590713
      8        1           0.002328339   -0.003935849   -0.001402057
      9        6          -0.016950376    0.009792667    0.013236946
     10        1          -0.000617738    0.000099312   -0.008089365
     11        1           0.009329512    0.009596402   -0.001607755
     12        1           0.002212003   -0.005077584   -0.000239125
     13        1          -0.003508111    0.001403075    0.002898270
     14        1           0.000023931    0.000998759    0.000141810
     15        7           0.003167591    0.019294620   -0.008177237
     16        8          -0.001101432   -0.022312451    0.003957706
     17        8           0.002825865   -0.002058216    0.000321823
 -------------------------------------------------------------------
 Cartesian Forces:  Max     0.022312451 RMS     0.007451239

 GradGradGradGradGradGradGradGradGradGradGradGradGradGradGradGradGradGrad
 Berny optimization.
 Using GEDIIS/GDIIS optimizer.
 FormGI is forming the generalized inverse of G from B-inverse, IUseBI=4.
 Internal  Forces:  Max     0.041443712 RMS     0.009091239
 Search for a local minimum.
 Step number   2 out of a maximum of   88
 All quantities printed in internal units (Hartrees-Bohrs-Radians)
 Mixed Optimization -- RFO/linear search
 Update second derivatives using D2CorX and points    1    2
 DE= -7.30D-03 DEPred=-3.89D-02 R= 1.88D-01
 Trust test= 1.88D-01 RLast= 3.22D-01 DXMaxT set to 3.00D-01
 ITU=  0  0
 Use linear search instead of GDIIS.
     Eigenvalues ---    0.00242   0.00768   0.00780   0.01306   0.01669
     Eigenvalues ---    0.02070   0.02070   0.02070   0.02070   0.02070
     Eigenvalues ---    0.02070   0.02093   0.06946   0.07320   0.15964
     Eigenvalues ---    0.16000   0.16000   0.16000   0.16000   0.16000
     Eigenvalues ---    0.16024   0.21996   0.22453   0.23953   0.24718
     Eigenvalues ---    0.24999   0.25000   0.28422   0.35667   0.36576
     Eigenvalues ---    0.37038   0.37230   0.37230   0.37230   0.37230
     Eigenvalues ---    0.37230   0.40071   0.41280   0.44551   0.45283
     Eigenvalues ---    0.45389   0.45389   0.80228   0.87796   0.88001
 RFO step:  Lambda=-6.98079068D-03 EMin= 2.41631995D-03
 Quartic linear search produced a step of -0.45211.
 Iteration  1 RMS(Cart)=  0.11710650 RMS(Int)=  0.01399628
 Iteration  2 RMS(Cart)=  0.01687840 RMS(Int)=  0.00208130
 Iteration  3 RMS(Cart)=  0.00034705 RMS(Int)=  0.00206158
 Iteration  4 RMS(Cart)=  0.00000143 RMS(Int)=  0.00206158
 Iteration  5 RMS(Cart)=  0.00000001 RMS(Int)=  0.00206158
 Variable       Old X    -DE/DX   Delta X   Delta X   Delta X     New X
                                 (Linear)    (Quad)   (Total)
    R1        2.63432  -0.00158   0.00631  -0.01216  -0.00590   2.62841
    R2        2.63078   0.00100   0.00790  -0.01112  -0.00320   2.62757
    R3        2.03628   0.00503  -0.00645   0.01778   0.01133   2.04761
    R4        2.64703  -0.00128   0.00056  -0.00314  -0.00264   2.64439
    R5        2.03538   0.00468  -0.00604   0.01661   0.01057   2.04594
    R6        2.69961  -0.02280  -0.02321   0.01091  -0.01231   2.68729
    R7        2.90214  -0.01009   0.00363  -0.02452  -0.02088   2.88126
    R8        2.64882   0.00136  -0.00025   0.00165   0.00144   2.65026
    R9        2.79365  -0.00155  -0.00712   0.00908   0.00195   2.79560
   R10        2.62532  -0.00268   0.01037  -0.02012  -0.00969   2.61563
   R11        2.03428   0.00094  -0.00555   0.01036   0.00481   2.03909
   R12        2.03515   0.00469  -0.00594   0.01645   0.01051   2.04566
   R13        2.04414   0.00785  -0.01001   0.02764   0.01764   2.06178
   R14        2.02102   0.01329   0.00045   0.01862   0.01907   2.04008
   R15        2.04432   0.00520  -0.01009   0.02392   0.01383   2.05815
   R16        2.32797  -0.00566   0.00486  -0.01253  -0.00767   2.32030
   R17        2.33197  -0.00290   0.00305  -0.00746  -0.00441   2.32756
    A1        2.09251  -0.00094   0.00085   0.00008   0.00090   2.09341
    A2        2.09539  -0.00016  -0.00045  -0.00208  -0.00252   2.09287
    A3        2.09528   0.00110  -0.00040   0.00201   0.00162   2.09690
    A4        2.12979   0.00066  -0.01600   0.02336   0.00721   2.13700
    A5        2.08099   0.00066   0.00606  -0.00623  -0.00015   2.08084
    A6        2.07239  -0.00132   0.00995  -0.01704  -0.00708   2.06531
    A7        2.05206  -0.00205   0.01914  -0.03425  -0.01521   2.03686
    A8        1.99839   0.02014   0.04341  -0.01745   0.02597   2.02436
    A9        2.23273  -0.01809  -0.06255   0.05171  -0.01082   2.22192
   A10        2.08950   0.00896   0.00221   0.01405   0.01612   2.10562
   A11        2.23699  -0.04144  -0.06447   0.00422  -0.06043   2.17656
   A12        1.95663   0.03248   0.06229  -0.01793   0.04414   2.00077
   A13        2.11588  -0.00508  -0.00972   0.00168  -0.00796   2.10792
   A14        2.08035   0.00220   0.00635  -0.00355   0.00271   2.08306
   A15        2.08693   0.00287   0.00338   0.00197   0.00524   2.09217
   A16        2.08654  -0.00155   0.00355  -0.00466  -0.00105   2.08549
   A17        2.10207   0.00162  -0.00347   0.00702   0.00349   2.10556
   A18        2.09457  -0.00007  -0.00008  -0.00232  -0.00245   2.09211
   A19        1.91602   0.00130  -0.00243   0.00505   0.00269   1.91870
   A20        1.95289   0.00057  -0.01911   0.01953   0.00046   1.95335
   A21        1.89283   0.00226   0.00805   0.00391   0.01189   1.90472
   A22        1.90229  -0.00247   0.00377  -0.02264  -0.01870   1.88359
   A23        1.89955  -0.00154   0.00501  -0.00370   0.00128   1.90083
   A24        1.89952  -0.00017   0.00503  -0.00255   0.00237   1.90189
   A25        2.16151  -0.03424  -0.03034  -0.02778  -0.06840   2.09311
   A26        2.02500   0.01758   0.03138  -0.00456   0.01652   2.04152
   A27        2.09619   0.01674  -0.00081   0.03961   0.02822   2.12440
    D1        0.00065  -0.00015  -0.00029  -0.00441  -0.00495  -0.00430
    D2        3.13473  -0.00004   0.00310   0.00944   0.01249  -3.13596
    D3       -3.13773  -0.00007  -0.00175  -0.00697  -0.00888   3.13658
    D4       -0.00364   0.00003   0.00165   0.00687   0.00856   0.00492
    D5        0.00576   0.00006  -0.00260  -0.00685  -0.00957  -0.00381
    D6       -3.14054   0.00010  -0.00048   0.00253   0.00222  -3.13832
    D7       -3.13905  -0.00002  -0.00115  -0.00429  -0.00564   3.13849
    D8       -0.00216   0.00003   0.00098   0.00509   0.00614   0.00398
    D9       -0.01087   0.00018   0.00492   0.01832   0.02326   0.01239
   D10        3.12953   0.00041   0.00545   0.02937   0.03502  -3.11864
   D11        3.13819   0.00007   0.00154   0.00450   0.00594  -3.13905
   D12       -0.00459   0.00030   0.00207   0.01555   0.01770   0.01311
   D13        0.01484  -0.00009  -0.00671  -0.02104  -0.02767  -0.01283
   D14       -3.11287  -0.00051  -0.01299  -0.05395  -0.06638   3.10394
   D15       -3.12538  -0.00039  -0.00733  -0.03372  -0.04098   3.11683
   D16        0.03010  -0.00082  -0.01361  -0.06663  -0.07969  -0.04959
   D17        1.59001   0.00069  -0.00868  -0.20384  -0.21258   1.37743
   D18       -2.57875  -0.00117  -0.01774  -0.21607  -0.23405  -2.81280
   D19       -0.48337   0.00045  -0.01819  -0.20460  -0.22289  -0.70626
   D20       -1.55292   0.00097  -0.00808  -0.19150  -0.19938  -1.75230
   D21        0.56151  -0.00089  -0.01714  -0.20373  -0.22085   0.34066
   D22        2.65688   0.00073  -0.01758  -0.19226  -0.20969   2.44720
   D23       -0.00899   0.00003   0.00406   0.01029   0.01440   0.00541
   D24        3.14037  -0.00005   0.00055  -0.00350  -0.00305   3.13732
   D25        3.12082  -0.00015   0.00939   0.03834   0.04863  -3.11373
   D26       -0.01300  -0.00023   0.00588   0.02455   0.03118   0.01818
   D27        0.03269  -0.00133  -0.01478  -0.18953  -0.20342  -0.17073
   D28        3.14058   0.00194   0.00046   0.06139   0.06054  -3.08206
   D29       -3.09589  -0.00163  -0.02066  -0.22057  -0.23993   2.94737
   D30        0.01200   0.00164  -0.00543   0.03035   0.02403   0.03603
   D31       -0.00151  -0.00006   0.00068   0.00374   0.00468   0.00317
   D32       -3.13842  -0.00011  -0.00143  -0.00563  -0.00703   3.13774
   D33        3.13228   0.00001   0.00421   0.01756   0.02221  -3.12869
   D34       -0.00463  -0.00004   0.00209   0.00820   0.01050   0.00587
         Item               Value     Threshold  Converged?
 Maximum Force            0.041444     0.000450     NO 
 RMS     Force            0.009091     0.000300     NO 
 Maximum Displacement     0.439182     0.001800     NO 
 RMS     Displacement     0.125827     0.001200     NO 
 Predicted change in Energy=-9.349577D-04
 GradGradGradGradGradGradGradGradGradGradGradGradGradGradGradGradGradGrad

                          Input orientation:                          
 ---------------------------------------------------------------------
 Center     Atomic      Atomic             Coordinates (Angstroms)
 Number     Number       Type             X           Y           Z
 ---------------------------------------------------------------------
      1          6           0       -0.898835   -0.088300    0.919877
      2          6           0        0.199249   -0.235577    0.078976
      3          6           0        0.853627    0.857681   -0.499601
      4          6           0        0.351354    2.147931   -0.175229
      5          6           0       -0.756632    2.291319    0.672534
      6          6           0       -1.380590    1.181898    1.216299
      7          1           0       -1.377419   -0.963973    1.342051
      8          1           0        0.561400   -1.230267   -0.148189
      9          6           0        2.021282    0.525672   -1.422122
     10          1           0        1.647045    0.214709   -2.398661
     11          1           0        2.671627    1.374494   -1.570491
     12          1           0        2.597700   -0.290508   -0.988776
     13          1           0       -2.232563    1.309720    1.871775
     14          1           0       -1.117942    3.280435    0.907966
     15          7           0        0.934259    3.422370   -0.649107
     16          8           0        2.019511    3.423509   -1.223422
     17          8           0        0.423202    4.461026   -0.228293
 ---------------------------------------------------------------------
                    Distance matrix (angstroms):
                    1          2          3          4          5
     1  C    0.000000
     2  C    1.390896   0.000000
     3  C    2.445592   1.399348   0.000000
     4  C    2.786209   2.401847   1.422055   0.000000
     5  C    2.396662   2.766084   2.454007   1.402459   0.000000
     6  C    1.390452   2.408035   2.835693   2.422643   1.384131
     7  H    1.083548   2.147510   3.418724   3.869721   3.380911
     8  H    2.139425   1.082666   2.137385   3.384830   3.848684
     9  C    3.793284   2.480443   1.524695   2.641047   3.901525
    10  H    4.193568   2.904747   2.156236   3.218667   4.418394
    11  H    4.592374   3.380196   2.172332   2.815783   4.198177
    12  H    3.988684   2.625962   2.144626   3.413783   4.547232
    13  H    2.153927   3.393490   3.918205   3.401389   2.140114
    14  H    3.375875   3.845070   3.426086   2.148186   1.079039
    15  N    4.259900   3.801437   2.570308   1.479370   2.425927
    16  O    5.044133   4.289348   2.909755   2.347031   3.547319
    17  O    4.874674   4.711969   3.639088   2.314818   2.628902
                    6          7          8          9         10
     6  C    0.000000
     7  H    2.149555   0.000000
     8  H    3.384035   2.459827   0.000000
     9  C    4.354840   4.627187   2.614858   0.000000
    10  H    4.813519   4.952737   2.886383   1.091045   0.000000
    11  H    4.921764   5.508730   3.641536   1.079566   1.755202
    12  H    4.780913   4.657025   2.395047   1.089126   1.773912
    13  H    1.082518   2.486273   4.282291   5.436882   5.872566
    14  H    2.137267   4.274431   4.927686   4.782547   5.289387
    15  N    3.722631   5.343086   4.694356   3.189049   3.722646
    16  O    4.747393   6.113164   4.993981   2.904642   3.437486
    17  O    4.011632   5.927801   5.693534   4.412040   4.923362
                   11         12         13         14         15
    11  H    0.000000
    12  H    1.765245   0.000000
    13  H    5.992034   5.837372   0.000000
    14  H    4.912860   5.491380   2.460696   0.000000
    15  N    2.839224   4.082631   4.565840   2.579952   0.000000
    16  O    2.178112   3.766069   5.668199   3.795642   1.227848
    17  O    4.047664   5.280515   4.625376   2.249445   1.231693
                   16         17
    16  O    0.000000
    17  O    2.148238   0.000000
 Stoichiometry    C7H7NO2
 Framework group  C1[X(C7H7NO2)]
 Deg. of freedom    45
 Full point group                 C1      NOp   1
 Largest Abelian subgroup         C1      NOp   1
 Largest concise Abelian subgroup C1      NOp   1
                         Standard orientation:                         
 ---------------------------------------------------------------------
 Center     Atomic      Atomic             Coordinates (Angstroms)
 Number     Number       Type             X           Y           Z
 ---------------------------------------------------------------------
      1          6           0       -2.544054   -0.348289   -0.045483
      2          6           0       -1.886589    0.877341   -0.032702
      3          6           0       -0.492092    0.980598    0.021069
      4          6           0        0.238477   -0.239169    0.047088
      5          6           0       -0.428975   -1.472558    0.034837
      6          6           0       -1.811237   -1.529400   -0.009223
      7          1           0       -3.626474   -0.380463   -0.083021
      8          1           0       -2.468881    1.789789   -0.055968
      9          6           0        0.071967    2.396594    0.059628
     10          1           0       -0.011260    2.802791    1.068814
     11          1           0        1.113128    2.423511   -0.224489
     12          1           0       -0.497543    3.026400   -0.622426
     13          1           0       -2.311207   -2.489462   -0.021751
     14          1           0        0.146208   -2.385369    0.051069
     15          7           0        1.714578   -0.336876    0.057843
     16          8           0        2.396275    0.665681   -0.136526
     17          8           0        2.199851   -1.468151    0.015473
 ---------------------------------------------------------------------
 Rotational constants (GHZ):           2.2033878           1.2508099           0.8031522
 Standard basis: 6-311G(d) (5D, 7F)
 There are   211 symmetry adapted cartesian basis functions of A   symmetry.
 There are   201 symmetry adapted basis functions of A   symmetry.
   201 basis functions,   355 primitive gaussians,   211 cartesian basis functions
    36 alpha electrons       36 beta electrons
       nuclear repulsion energy       502.2227924044 Hartrees.
 NAtoms=   17 NActive=   17 NUniq=   17 SFac= 1.00D+00 NAtFMM=   60 NAOKFM=F Big=F
 Integral buffers will be    131072 words long.
 Raffenetti 2 integral format.
 Two-electron integral symmetry is turned on.
 ------------------------------------------------------------------------------
 Polarizable Continuum Model (PCM)
 =================================
 Model                : PCM.
 Atomic radii         : UFF (Universal Force Field).
 Polarization charges : Total charges.
 Charge compensation  : None.
 Solution method      : On-the-fly selection.
 Cavity type          : Scaled VdW (van der Waals Surface) (Alpha=1.100).
 Cavity algorithm     : GePol (No added spheres)
                        Default sphere list used, NSphG=   17.
                        Lebedev-Laikov grids with approx.  5.0 points / Ang**2.
                        Smoothing algorithm: York/Karplus (Gamma=1.0000).
                        Polarization charges: spherical gaussians, with
                                              point-specific exponents (IZeta= 3).
                        Self-potential: point-specific (ISelfS= 7).
                        Self-field    : sphere-specific E.n sum rule (ISelfD= 2).
 1st derivatives      : Analytical E(r).r(x)/FMM algorithm (CHGder, D1EAlg=3).
                        Cavity 1st derivative terms included.
 Solvent              : Dichloromethane, Eps=   8.930000 Eps(inf)=   2.028346
 ------------------------------------------------------------------------------
 Spheres list:
 ISph  on   Nord     Re0    Alpha      Xe            Ye            Ze
    1   C      1    1.9255  1.100     -2.544054     -0.348289     -0.045483
    2   C      2    1.9255  1.100     -1.886589      0.877341     -0.032702
    3   C      3    1.9255  1.100     -0.492092      0.980598      0.021069
    4   C      4    1.9255  1.100      0.238477     -0.239169      0.047088
    5   C      5    1.9255  1.100     -0.428975     -1.472558      0.034837
    6   C      6    1.9255  1.100     -1.811237     -1.529400     -0.009223
    7   H      7    1.4430  1.100     -3.626474     -0.380463     -0.083021
    8   H      8    1.4430  1.100     -2.468881      1.789789     -0.055968
    9   C      9    1.9255  1.100      0.071967      2.396594      0.059628
   10   H     10    1.4430  1.100     -0.011260      2.802791      1.068814
   11   H     11    1.4430  1.100      1.113128      2.423511     -0.224489
   12   H     12    1.4430  1.100     -0.497543      3.026400     -0.622426
   13   H     13    1.4430  1.100     -2.311207     -2.489462     -0.021751
   14   H     14    1.4430  1.100      0.146208     -2.385369      0.051069
   15   N     15    1.8300  1.100      1.714578     -0.336876      0.057843
   16   O     16    1.7500  1.100      2.396275      0.665681     -0.136526
   17   O     17    1.7500  1.100      2.199851     -1.468151      0.015473
 ------------------------------------------------------------------------------
 One-electron integrals computed using PRISM.
 NBasis=   201 RedAO= T EigKep=  1.79D-04  NBF=   201
 NBsUse=   201 1.00D-06 EigRej= -1.00D+00 NBFU=   201
 Initial guess from the checkpoint file:  "/home/kimariyb/g16/scratch/Gau-9584.chk"
 B after Tr=     0.000000   -0.000000    0.000000
         Rot=    0.999765    0.000291    0.001614    0.021637 Ang=   2.49 deg.
 ExpMin= 1.03D-01 ExpMax= 8.59D+03 ExpMxC= 1.30D+03 IAcc=2 IRadAn=         4 AccDes= 0.00D+00
 Harris functional with IExCor=  402 and IRadAn=       4 diagonalized for initial guess.
 HarFok:  IExCor=  402 AccDes= 0.00D+00 IRadAn=         4 IDoV= 1 UseB2=F ITyADJ=14
 ICtDFT=  3500011 ScaDFX=  1.000000  1.000000  1.000000  1.000000
 FoFCou: FMM=F IPFlag=           0 FMFlag=      100000 FMFlg1=           0
         NFxFlg=           0 DoJE=T BraDBF=F KetDBF=T FulRan=T
         wScrn=  0.000000 ICntrl=       500 IOpCl=  0 I1Cent=   200000004 NGrid=           0
         NMat0=    1 NMatS0=      1 NMatT0=    0 NMatD0=    1 NMtDS0=    0 NMtDT0=    0
 Petite list used in FoFCou.
 Requested convergence on RMS density matrix=1.00D-08 within 128 cycles.
 Requested convergence on MAX density matrix=1.00D-06.
 Requested convergence on             energy=1.00D-06.
 No special actions if energy rises.
 Inv3:  Mode=1 IEnd=     6403563.
 Iteration    1 A*A^-1 deviation from unit magnitude is 3.55D-15 for    758.
 Iteration    1 A*A^-1 deviation from orthogonality  is 1.89D-15 for   1281    474.
 Iteration    1 A^-1*A deviation from unit magnitude is 2.89D-15 for    186.
 Iteration    1 A^-1*A deviation from orthogonality  is 2.00D-15 for   1293    466.
 Error on total polarization charges =  0.00849
 SCF Done:  E(RB3LYP) =  -476.176193066     A.U. after   13 cycles
            NFock= 13  Conv=0.81D-08     -V/T= 2.0035
 D1PCM: PCM CHGder 1st derivatives, ID1Alg=3 FixD1E=F DoIter=F DoCFld=F I1PDM=0.
 Calling FoFJK, ICntrl=      2127 FMM=F ISym2X=0 I1Cent= 0 IOpClX= 0 NMat=1 NMatS=1 NMatT=0.
 ***** Axes restored to original set *****
 -------------------------------------------------------------------
 Center     Atomic                   Forces (Hartrees/Bohr)
 Number     Number              X              Y              Z
 -------------------------------------------------------------------
      1        6           0.001380350   -0.001982773   -0.001482240
      2        6          -0.004385207    0.002651831    0.002714655
      3        6           0.005974221    0.006200391   -0.005581119
      4        6          -0.007242578   -0.011942876   -0.002890269
      5        6          -0.000043974    0.000372220   -0.001264195
      6        6           0.000102770    0.000487574    0.000480972
      7        1          -0.000057269   -0.000898073    0.000201928
      8        1           0.001078093   -0.001094700   -0.000395442
      9        6          -0.005369425    0.007679011    0.006713234
     10        1          -0.000388518   -0.001660119   -0.001565363
     11        1           0.002494843    0.001192371   -0.000984616
     12        1           0.000024592   -0.002477061   -0.001372531
     13        1          -0.000647513    0.000474996    0.000546783
     14        1           0.000588723    0.001046464   -0.000845961
     15        7           0.018573380    0.006136977    0.028147328
     16        8          -0.005967579   -0.004286977   -0.011007755
     17        8          -0.006114908   -0.001899256   -0.011415406
 -------------------------------------------------------------------
 Cartesian Forces:  Max     0.028147328 RMS     0.006317287

 GradGradGradGradGradGradGradGradGradGradGradGradGradGradGradGradGradGrad
 Berny optimization.
 Using GEDIIS/GDIIS optimizer.
 FormGI is forming the generalized inverse of G from B-inverse, IUseBI=4.
 Internal  Forces:  Max     0.013312401 RMS     0.003774545
 Search for a local minimum.
 Step number   3 out of a maximum of   88
 All quantities printed in internal units (Hartrees-Bohrs-Radians)
 Mixed Optimization -- RFO/linear search
 Update second derivatives using D2CorX and points    1    2    3
 DE= -2.43D-03 DEPred=-9.35D-04 R= 2.60D+00
 TightC=F SS=  1.41D+00  RLast= 6.49D-01 DXNew= 5.0454D-01 1.9461D+00
 Trust test= 2.60D+00 RLast= 6.49D-01 DXMaxT set to 5.05D-01
 ITU=  1  0  0
 Use linear search instead of GDIIS.
     Eigenvalues ---    0.00140   0.00676   0.01291   0.01609   0.01862
     Eigenvalues ---    0.02070   0.02070   0.02070   0.02070   0.02070
     Eigenvalues ---    0.02070   0.04332   0.06951   0.07255   0.15888
     Eigenvalues ---    0.15999   0.16000   0.16000   0.16000   0.16015
     Eigenvalues ---    0.16129   0.21992   0.22607   0.23519   0.24976
     Eigenvalues ---    0.24999   0.26657   0.28125   0.34907   0.36319
     Eigenvalues ---    0.37070   0.37230   0.37230   0.37230   0.37230
     Eigenvalues ---    0.37269   0.38807   0.41315   0.44042   0.45109
     Eigenvalues ---    0.45389   0.45705   0.49840   0.87430   0.88138
 RFO step:  Lambda=-1.42608380D-02 EMin= 1.39720434D-03
 Quartic linear search produced a step of -0.34168.
 Iteration  1 RMS(Cart)=  0.08306917 RMS(Int)=  0.01380595
 Iteration  2 RMS(Cart)=  0.01498276 RMS(Int)=  0.00611535
 Iteration  3 RMS(Cart)=  0.00052246 RMS(Int)=  0.00609440
 Iteration  4 RMS(Cart)=  0.00001405 RMS(Int)=  0.00609439
 Iteration  5 RMS(Cart)=  0.00000046 RMS(Int)=  0.00609439
 Variable       Old X    -DE/DX   Delta X   Delta X   Delta X     New X
                                 (Linear)    (Quad)   (Total)
    R1        2.62841  -0.00069   0.00202  -0.01531  -0.01332   2.61510
    R2        2.62757   0.00244   0.00109  -0.00677  -0.00573   2.62185
    R3        2.04761   0.00083  -0.00387   0.02710   0.02323   2.07084
    R4        2.64439   0.00149   0.00090  -0.00393  -0.00300   2.64138
    R5        2.04594   0.00145  -0.00361   0.02624   0.02263   2.06857
    R6        2.68729  -0.01050   0.00421  -0.02781  -0.02355   2.66375
    R7        2.88126  -0.00520   0.00714  -0.05332  -0.04618   2.83507
    R8        2.65026  -0.00184  -0.00049   0.00078   0.00032   2.65058
[...]
   xx         0.761530D+02      0.112847D+02      0.125559D+02
   yx        -0.391951D+02     -0.580811D+01     -0.646239D+01
   yy         0.114624D+03      0.169855D+02      0.188989D+02
   zx        -0.369962D+01     -0.548227D+00     -0.609985D+00
   zy         0.421476D+01      0.624563D+00      0.694921D+00
   zz         0.146105D+03      0.216505D+02      0.240894D+02

 ----------------------------------------------------------------------
 1\1\GINC-LOCALHOST\Freq\RB3LYP\6-311G(d)\C7H7N1O2\KIMARIYB\18-Jul-2023
 \0\\#N Geom=AllCheck Guess=TCheck SCRF=Check GenChk RB3LYP/6-311G(d) F
 req\\Title Card Required\\0,1\C,-0.8983823138,-0.0934780839,0.94659068
 63\C,0.2136584232,-0.2433002685,0.1239928651\C,0.8610202954,0.84919664
 27,-0.4681524749\C,0.3270190287,2.1149258354,-0.1643331973\C,-0.777542
 5213,2.2860673793,0.6718143398\C,-1.4009997489,1.1770450265,1.22323349
 34\H,-1.37010912,-0.9711526497,1.3750458152\H,0.6003645177,-1.23801549
 71,-0.0700755719\C,2.0618131193,0.5975445621,-1.3444605931\H,1.8316068
 329,0.7845981534,-2.3949650881\H,2.9015671298,1.2462111586,-1.09074589
 46\H,2.3822662273,-0.4400091604,-1.2406936544\H,-2.2668250332,1.304128
 5794,1.8625192071\H,-1.1330047897,3.2870927428,0.8740072326\N,0.912159
 8694,3.3482312979,-0.7199144523\O,1.5606649818,3.2732821939,-1.7583683
 301\O,0.7110001214,4.3997724375,-0.1199073428\\Version=ES64L-G16RevA.0
 3\State=1-A\HF=-476.1837398\RMSD=1.500e-09\RMSF=9.810e-06\ZeroPoint=0.
 1306895\Thermal=0.139014\Dipole=-0.7009819,-1.8524662,0.6834294\Dipole
 Deriv=0.0861705,-0.0186044,-0.1390561,0.0039806,0.2406494,-0.0310209,-
 0.133316,-0.0215682,0.0074923,-0.3160243,-0.0821541,0.1269356,-0.21544
 56,0.1259835,0.1369568,0.1361438,0.0286237,-0.2689008,0.2687939,-0.114
 9028,-0.2163169,0.1932937,0.1377532,-0.1639721,-0.2171844,0.1828116,0.
 1323964,-0.0735887,-0.2978102,0.1175167,-0.2262798,-0.4227858,0.186730
 6,0.0958045,0.2383548,-0.0934715,-0.0472715,0.2565025,-0.0442005,-0.03
 5284,0.089081,0.0221012,-0.0798141,-0.2804266,-0.0191155,0.0380112,-0.
 0671334,-0.143907,0.0149881,-0.3987713,0.0049582,-0.1557758,0.0600017,
 -0.0494567,0.0760814,-0.0724885,0.0649098,-0.082079,-0.0416612,0.07931
 57,0.0676168,0.077895,0.0993678,0.0730346,0.0911083,0.0489325,0.064042
 9,-0.0811182,-0.0265417,0.0426424,-0.0458744,0.1272167,0.0215327,0.024
 2453,0.0798008,-0.0716295,0.2218939,0.0204706,0.1398326,-0.0725649,0.0
 048071,0.0124108,0.0392321,-0.0145681,0.0353657,0.0953041,0.0314694,0.
 0092582,0.0110572,-0.1052672,-0.0696896,-0.0636161,0.0085341,-0.094382
 ,-0.0080808,-0.0564225,-0.0250992,-0.0579967,0.0554981,0.0397969,0.032
 6147,0.0350283,0.1173453,-0.1639687,-0.0134762,-0.0018027,0.0582421,0.
 0845024,-0.0148154,0.0198308,0.1326979,0.0279189,0.0919283,-0.0138943,
 0.1334225,0.0031813,0.0630264,0.1342474,0.041005,0.0118459,0.0566538,0
 .025831,-0.0246675,0.0355146,-0.0037824,0.1391761,0.8424041,0.3724404,
 -0.7702638,0.3436243,2.3113952,0.0278391,-0.7712558,0.0564073,1.565560
 3,-0.6675271,-0.123443,0.5420357,-0.1407227,-0.7239461,0.1239673,0.529
 6994,0.0052128,-1.0852585,-0.4035669,-0.0368269,0.1600751,0.0086096,-1
 .4994875,-0.3038136,0.1943132,-0.2395742,-0.6575734\Polar=104.8003737,
 3.4547529,139.9774943,-46.2678661,-5.2293895,92.1036735\Quadrupole=2.8
 673222,-1.9211436,-0.9461786,-2.3396954,-2.0378677,0.9234654\PG=C01 [X
 (C7H7N1O2)]\NImag=0\\0.49054261,0.00595663,0.71414222,-0.26513138,-0.0
 5199242,0.34230984,-0.23833045,-0.00560758,0.13240479,0.49054647,0.047
 47245,-0.13498962,-0.02912540,-0.05659345,0.70524103,0.12710251,0.0110
 3348,-0.15922420,-0.26327306,-0.01190719,0.33088316,-0.02018665,-0.016
 84636,0.02102562,-0.13918410,-0.08823411,0.06158734,0.46615551,-0.0551
 4783,0.04592311,0.03781973,-0.03335560,-0.23836265,0.04240407,-0.02114
 021,0.62408640,0.02350251,0.00968417,-0.01367596,0.05841099,0.08346894
 ,-0.11887833,-0.21853209,-0.02527455,0.34477611,-0.03118628,0.02520255
 ,0.01639979,0.03844192,0.00806694,-0.02314910,-0.13098150,0.04794333,0
 .04844053,0.45563927,0.02235658,-0.02166490,-0.01545313,-0.03037089,-0
 .05474997,0.02596900,0.08747394,-0.23945487,-0.04751678,-0.08142584,0.
 57667378,0.01853274,-0.01912844,-0.01836289,-0.02325805,-0.00133013,0.
 02388499,0.04774281,-0.02040829,-0.09995599,-0.25044115,0.04183769,0.3
 4500404,0.04407694,-0.02651419,-0.02527199,-0.03656905,-0.01904980,0.0
 2503399,-0.00748814,0.06088595,0.00598733,-0.21707768,0.01189820,0.118
 75129,0.47420053,0.00963143,-0.05818442,-0.00215083,-0.01763519,-0.011
 08569,0.01409736,0.02601279,0.01957903,-0.02127581,0.05613083,-0.12339
 117,-0.04178103,-0.03065510,0.75387730,-0.02916765,0.02588919,0.027305
 29,0.02485739,0.01552098,-0.02605398,0.00934353,-0.04676638,0.00478086
 ,0.11346100,-0.00829077,-0.14716071,-0.25482879,-0.02013238,0.32989441
 ,-0.13401249,0.09501986,0.04585418,-0.00914175,0.02907364,0.01099405,-
 0.00029199,-0.00535753,-0.00352174,-0.01909700,-0.01791578,0.01970516,
 -0.15126042,-0.10212615,0.07450183,0.52849394,0.04335613,-0.29717111,-
 0.01412559,0.06462179,0.02217237,-0.05032119,-0.00502431,-0.06599649,0
 .00905558,-0.05663683,0.03283374,0.04326819,-0.05096700,-0.26710825,0.
 05190467,-0.02385751,0.66102643,0.04999284,-0.05250936,-0.09604808,0.0
 0823262,-0.02309038,0.00415399,-0.00318840,0.00860102,-0.00297401,0.02
 461988,0.01056384,-0.01371172,0.07041197,0.09321593,-0.12132273,-0.297
 14039,-0.02388648,0.35412111,-0.10572014,-0.09679397,0.05794245,-0.006
 26362,-0.02148382,0.00967715,-0.00048820,0.00163523,0.00573990,-0.0005
 7079,0.00096345,0.00051839,0.00228564,0.00274647,0.00330415,0.00936652
 ,0.01021144,-0.00463508,0.10371271,-0.09697079,-0.24278527,0.09013552,
 0.00301812,0.00691460,-0.00253739,0.00156113,0.00140320,-0.00067986,0.
 00070226,-0.00001934,-0.00060253,0.00318654,-0.00388970,-0.00148775,-0
 .01411486,-0.01750876,0.01243812,0.10403441,0.25482823,0.05797236,0.09
 008853,-0.09030845,0.00757239,0.01602684,-0.00293815,0.00580598,-0.000
 78686,0.00305984,0.00030986,-0.00031825,-0.00014409,0.00333483,-0.0013
 8101,0.00459441,-0.00269984,-0.00587966,0.00679097,-0.06706908,-0.0974
 5800,0.08461322,-0.00509137,0.02424703,0.00396501,-0.08590234,0.092499
 72,0.02798890,0.00666560,-0.01341928,-0.00106015,0.00128751,-0.0013230
 7,0.00363090,-0.00088097,-0.00073145,0.00022193,-0.00104297,-0.0000605
 5,0.00586590,-0.00073824,-0.00049237,-0.00237651,0.08690023,-0.0005077
 1,0.00110891,0.00052511,0.09113855,-0.29219404,-0.04380793,0.00937692,
 -0.02004730,-0.00471384,-0.00255234,-0.00176710,0.00302372,-0.00049694
 ,0.00020390,0.00025550,0.00043555,0.00168508,0.00022231,0.00002289,0.0
 0075027,-0.00050380,-0.09848751,0.30959783,0.00661444,-0.01824944,-0.0
 0011604,0.02786508,-0.04473085,-0.05263133,-0.00347105,0.01286252,0.00
 512538,0.00368649,0.00171931,0.00267553,0.00003717,0.00019582,-0.00068
 698,0.00586495,0.00071168,0.00227028,-0.00245235,-0.00002591,-0.002163
 77,-0.03635026,0.04650726,0.04805805,0.00453928,-0.00113393,0.00256095
 ,-0.01573644,-0.00203847,0.01836215,-0.15633389,0.01356124,0.06311122,
 -0.00711340,0.00910894,0.00556916,0.00278537,-0.00043593,0.00169842,-0
 .00102207,0.00083747,-0.00005272,-0.00027111,0.00007156,-0.00012951,-0
 .00078503,0.00169731,-0.00254092,0.50824467,0.00052399,-0.00428740,0.0
 0183196,-0.01981002,0.00587631,0.01654470,0.02309241,-0.09155802,-0.01
 633554,0.02271990,0.00165379,-0.01794429,-0.00025537,-0.00591370,0.001
 17546,-0.00046448,0.00105721,0.00020881,-0.00100014,0.00006893,0.00056
 994,-0.00237844,0.00039587,0.00055131,0.01379545,0.58652477,0.00160803
 ,0.00233333,0.00667383,0.02011518,0.00213584,-0.00714452,0.05803197,-0
 .00732453,-0.11393841,0.00443309,-0.00848969,0.00039889,0.00223630,0.0
 0210525,0.00359840,0.00052782,-0.00147133,-0.00120936,-0.00013424,-0.0
 0007758,-0.00042446,-0.00231287,-0.00128760,-0.00251140,0.02923104,-0.
 01735283,0.51919155,-0.00067750,-0.00061955,-0.00119503,-0.00228693,0.
 00084440,0.00079190,0.00557049,-0.00540296,0.02806139,0.00073967,0.000
 05049,-0.00053473,-0.00119875,-0.00052037,-0.00031815,-0.00009912,0.00
 058106,0.00014612,-0.00005511,-0.00002500,0.00022949,0.00029356,-0.000
 08693,0.00043744,-0.05664615,0.01185945,-0.05573383,0.06362591,-0.0002
 4943,-0.00005826,-0.00013959,-0.00044563,0.00004267,0.00011720,-0.0039
 3714,0.00064240,-0.00490551,0.00055790,-0.00157564,-0.00017161,0.00017
 544,0.00016728,0.00047117,0.00019678,0.00000439,-0.00015431,0.00000244
 ,0.00000407,0.00001338,0.00017827,0.00020886,0.00024133,0.01393377,-0.
 05218843,0.04513687,-0.01289807,0.05433561,0.00076190,0.00014764,0.000
 39154,0.00066283,-0.00147725,-0.00032901,0.00010174,0.00215545,-0.0176
 1199,0.00013109,0.00130235,0.00083864,0.00089601,0.00004427,-0.0001365
 6,-0.00014405,-0.00023430,-0.00004570,0.00012203,0.00000807,-0.0000963
 9,-0.00024565,-0.00006182,-0.00032350,-0.05779871,0.04414516,-0.291281
 58,0.05912177,-0.04988011,0.31647196,0.00073290,-0.00074925,0.00070442
 ,-0.00261245,0.00194022,0.00152035,-0.01932766,-0.01447433,-0.00549827
 ,0.00127044,-0.00090473,0.00030554,-0.00031929,-0.00026294,0.00117145,
 -0.00014945,0.00066218,-0.00007547,-0.00024671,-0.00000288,0.00013014,
 -0.00016170,-0.00006489,-0.00028654,-0.20303208,-0.12092852,-0.0483441
 2,-0.00579458,-0.00431052,-0.00268848,0.22013635,-0.00070189,0.0004871
 4,0.00033017,0.00024276,0.00028122,-0.00115027,0.00417533,0.00460859,0
 .00539408,0.00044646,-0.00175115,0.00081529,-0.00004274,0.00048947,-0.
 00056539,0.00016772,-0.00061636,-0.00007678,0.00004734,0.00001569,0.00
 006875,-0.00003808,0.00038287,-0.00019528,-0.12159580,-0.14323361,-0.0
 4171670,0.00465935,0.00264822,0.00111580,0.13313655,0.15357621,0.00004
 298,0.00029334,-0.00125818,0.00190364,-0.00123361,-0.00147106,0.017370
 24,0.01405026,0.00340155,-0.00049153,0.00062758,0.00059521,-0.00032869
 ,0.00009325,-0.00034125,0.00002313,0.00024642,0.00002805,0.00022173,0.
 00000808,-0.00009969,0.00030517,-0.00007152,0.00032647,-0.04937056,-0.
 04027042,-0.05745783,-0.02428857,-0.01921631,-0.00778872,0.04971573,0.
 04427464,0.06384829,0.00004893,-0.00007664,-0.00015812,0.00069263,0.00
 185750,-0.00047375,-0.00999435,0.02627849,-0.00223282,-0.00300853,-0.0
 0117051,0.00309490,0.00030547,0.00133217,0.00019656,-0.00001477,-0.000
 09250,-0.00000758,0.00001958,-0.00002473,-0.00004036,-0.00048018,-0.00
 104321,0.00048657,-0.07152359,0.06925787,-0.00783553,-0.00305730,0.006
 37556,-0.00064844,0.00957645,-0.02292233,0.00402344,0.07699143,-0.0000
 4085,0.00032145,-0.00043303,-0.00260884,0.00050528,0.00146673,0.001217
 75,-0.00537835,-0.00039212,0.00053046,0.00099821,0.00018087,-0.0001452
 2,-0.00040634,0.00024362,-0.00009851,0.00027189,0.00006665,0.00006523,
 0.00000219,-0.00003003,-0.00003108,0.00070291,0.00025753,0.07327752,-0
 .28993256,0.02462928,0.00052328,-0.00362221,0.00076655,0.00563354,-0.0
 1599378,0.00238829,-0.07897607,0.31383526,-0.00010981,-0.00010384,-0.0
 0011578,-0.00022446,-0.00145454,0.00030056,0.00741184,-0.02077398,-0.0
 0097646,0.00335359,0.00082334,-0.00100544,0.00010068,-0.00102455,-0.00
 005270,-0.00001319,0.00002961,0.00014089,-0.00005525,0.00001034,0.0000
 0282,0.00035029,0.00049331,-0.00003314,-0.00959090,0.02779006,-0.05133
 712,-0.00770614,0.02973787,-0.00042290,0.00322729,-0.00789083,-0.00031
 703,0.00315978,-0.02947735,0.05362963,-0.00452341,-0.00062676,0.005552
 06,0.00304400,0.00212271,0.00266236,0.00004801,-0.00004852,-0.00056217
 ,0.00291957,-0.00196120,0.00318747,-0.00725368,0.00272951,0.00713219,-
 0.23037730,0.02732485,0.14385604,-0.00088390,0.00000984,-0.00216851,-0
 .00029491,-0.00006460,0.00037478,-0.00035278,-0.00012616,-0.00051470,0
 .00007442,0.00000930,-0.00003102,-0.00008344,-0.00001747,0.00008759,0.
 00000370,0.00005973,0.00001361,0.23896812,0.02399056,0.00166946,-0.017
 90602,0.00149390,-0.00489875,-0.00022229,-0.00013872,-0.00116948,0.000
 20079,-0.00128542,-0.00344083,0.00138504,-0.02182954,0.00651398,0.0161
 3038,0.02764022,-0.06339538,-0.01845189,-0.00072212,0.00109541,0.00011
 729,0.00115931,-0.00008641,-0.00082270,0.00001703,0.00015297,-0.000107
 12,0.00003125,0.00000753,-0.00003504,0.00004263,0.00001846,-0.00002030
 ,-0.00006737,0.00004916,0.00003759,-0.02937451,0.06236124,0.00370486,0
 .00056529,-0.00004030,0.00275680,-0.00079456,0.00487087,-0.00053820,0.
 00002666,-0.00041383,0.00322618,0.00257314,0.00472128,0.00904144,-0.00
 239196,-0.00414806,0.14390804,-0.01813712,-0.14217304,-0.00214864,-0.0
 0041111,-0.00213390,0.00027830,0.00009203,-0.00001272,-0.00044747,-0.0
 0019606,-0.00065092,0.00014025,0.00003863,-0.00008577,-0.00007610,0.00
 001658,0.00007589,0.00001917,0.00003622,0.00001027,-0.15788948,0.01909
 687,0.14225696,0.00156381,-0.00232992,0.00456376,-0.00077943,-0.000524
 64,-0.00003536,-0.00170348,-0.00056191,0.00528867,-0.00347066,0.023636
 87,0.00398438,-0.08273688,0.08980290,0.02969848,0.00951729,-0.01417476
 ,-0.00308056,0.00021255,-0.00070630,-0.00020296,-0.00020765,0.00001507
 ,-0.00037856,0.00043900,0.00106279,0.00000714,-0.00004841,0.00001166,0
 .00011480,-0.00002174,-0.00007184,-0.00006928,-0.00030763,0.00006634,0
 .00016923,-0.00096716,0.00028899,-0.00249769,0.07927460,-0.00252202,-0
 .00178994,0.00231908,-0.00063648,0.00029107,0.00041310,0.00007901,0.00
 144763,0.00027345,0.00138862,-0.00000491,-0.00092240,0.09242491,-0.302
 68227,-0.05082829,0.00872795,-0.01601821,-0.00535425,0.00049099,-0.000
 75561,-0.00026894,0.00005655,-0.00005872,-0.00007472,-0.00017364,0.000
 00678,0.00010708,0.00003764,-0.00001928,-0.00001560,0.00000508,0.00000
 458,-0.00001755,0.00000111,0.00000824,-0.00003011,-0.00015428,0.001029
 71,-0.00010727,-0.09616000,0.32186720,0.00453972,0.00247598,0.00368409
 ,-0.00005848,0.00038913,-0.00068680,0.00482455,0.00063675,0.00078625,0
 .00735636,-0.01631428,0.00055515,0.02836533,-0.04962554,-0.05654525,-0
 .00455704,0.01254537,0.00724766,-0.00034039,0.00060784,-0.00000430,-0.
 00037978,-0.00007585,-0.00040692,0.00026801,-0.00080166,0.00066429,-0.
 00007105,0.00001784,0.00001203,0.00005606,0.00002508,-0.00003053,0.000
 22733,-0.00006292,-0.00025806,-0.00248288,-0.00063912,-0.00240357,-0.0
 3527706,0.05269566,0.04967187,-0.00121208,0.00093599,-0.00047259,0.004
 90390,0.00517742,0.00378031,0.01313363,-0.00292024,-0.01451046,-0.1004
 3179,0.00502323,0.01461179,-0.01842575,-0.03113559,0.01613201,-0.00050
 278,0.00686279,0.00734653,-0.00063112,0.00008646,-0.00099793,0.0005730
 9,0.00130319,0.00015027,-0.00310568,-0.00171026,-0.00122837,0.00001123
 ,0.00173470,0.00099003,-0.00232561,0.00288667,0.00038603,-0.00047047,-
 0.00084000,0.00057165,0.00023867,-0.00103586,0.00056670,-0.00197746,-0
 .00020080,-0.00244210,0.41478289,0.00338489,-0.00293063,-0.00200503,0.
 00650898,-0.00313899,-0.00376644,-0.01028934,-0.03922326,0.00748972,0.
 00280960,-0.10903758,0.00170382,-0.02522165,0.00081077,0.02178866,0.00
 469215,0.01141847,-0.00339794,0.00013867,0.00013037,-0.00039589,-0.001
 00178,0.00020521,0.00061944,-0.00253686,-0.00071121,0.00174009,-0.0000
 9653,0.00028467,0.00026328,0.00074878,0.00052605,-0.00028423,-0.000693
 66,0.00089628,0.00062058,0.00091709,0.00081795,-0.00094851,0.00292079,
 -0.00256854,-0.00355114,-0.01539472,0.69176970,-0.00009526,-0.00124577
 ,-0.00142168,0.00165360,-0.00323705,0.00713109,-0.01276056,0.00668035,
 0.00680594,0.01414451,0.00270771,-0.08463464,0.01074569,0.02109691,-0.
 01510824,0.00713816,-0.00485723,0.00311636,-0.00061162,-0.00032613,-0.
 00081988,0.00043948,-0.00099800,0.00060678,-0.00166688,0.00215737,-0.0
 0487721,0.00171131,-0.00288033,-0.00232544,0.00263038,-0.00184672,0.00
 161081,0.00081152,0.00163734,-0.00087747,0.00055838,0.00078364,0.00063
 781,-0.00034817,-0.00071826,-0.00347610,-0.26948598,0.13189549,0.66294
 064,-0.00109581,0.00102932,0.00111186,-0.00067744,0.00018520,-0.001415
 58,-0.00396268,0.00291664,0.00393004,-0.00724453,-0.01455710,0.0370983
 0,0.00466441,-0.00192736,-0.00110313,-0.00165966,-0.00367804,-0.000751
 24,0.00016372,-0.00012502,0.00027252,0.00004038,-0.00037942,-0.0000113
 4,-0.00065518,0.00400287,-0.00117901,-0.00039733,-0.00118376,-0.000808
 73,0.00219716,-0.00001955,0.00059591,0.00127077,0.00133578,-0.00036448
 ,-0.00042441,-0.00027948,0.00002797,0.00112568,0.00018700,0.00049611,-
 0.20249119,-0.00250373,0.19766133,0.20237684,-0.00059388,0.00029577,0.
 00049775,0.00015272,0.00060864,0.00008814,0.00105537,-0.00020219,-0.00
 013577,-0.02181849,0.01152424,0.02760940,0.00186543,-0.00617225,0.0003
 8115,-0.00203095,-0.00008445,0.00094349,-0.00010029,-0.00010127,0.0000
 5324,-0.00001570,-0.00012280,-0.00001062,0.00071308,-0.00818409,0.0006
 0175,0.00070192,-0.00104047,0.00154077,0.00006233,-0.00100183,-0.00048
 795,-0.00011818,-0.00148850,0.00114401,-0.00044967,-0.00055059,0.00021
 679,-0.00046788,0.00052171,0.00029986,-0.01035241,-0.12776073,0.001399
 57,-0.01489499,0.13338416,0.00057397,-0.00063908,-0.00002149,0.0009809
 2,0.00042803,-0.00088653,0.00283632,-0.00561002,-0.00226407,0.03513796
 ,0.01498043,-0.03044963,-0.00170746,0.00523748,0.00445544,0.00124949,0
 .00253222,-0.00090493,-0.00008597,0.00022725,-0.00011657,-0.00015870,0
 .00035367,0.00003407,-0.00071469,-0.00135197,-0.00015122,-0.00062876,0
 .00078428,0.00207399,-0.00136067,0.00160561,-0.00053365,-0.00018332,-0
 .00050427,0.00103861,0.00018325,0.00048613,-0.00054466,-0.00165888,-0.
 00028626,0.00028581,0.19789800,-0.00416989,-0.38362908,-0.27606073,0.0
 4357760,0.47145009,0.00053171,-0.00109323,0.00014424,-0.00014491,-0.00
 131591,-0.00115414,-0.00163061,-0.00139247,0.00344510,0.01988376,-0.01
 088259,-0.00249890,-0.00510774,-0.00295603,0.00369877,0.00129402,0.000
 03377,-0.00154047,0.00010823,-0.00020837,0.00005712,-0.00017504,-0.000
 30594,-0.00002617,0.00056908,0.00035865,0.00109212,-0.00005410,-0.0001
 5128,-0.00053713,0.00016141,-0.00035250,-0.00012697,-0.00005215,0.0000
 3096,-0.00029373,-0.00013552,0.00006911,-0.00007214,0.00008759,-0.0035
 5165,-0.00052470,-0.10206949,0.03561732,0.04747411,0.00676927,0.046291
 59,0.04369927,0.07996449,0.00006173,-0.00008654,-0.00012827,-0.0001131
 5,-0.00251350,0.00157891,-0.00843445,0.00370225,0.00566304,-0.00277993
 ,-0.06682631,-0.01753530,0.00474107,-0.00280797,-0.00568984,0.00001189
 ,-0.00257056,0.00066121,-0.00025823,-0.00015301,0.00008446,-0.00016158
 ,-0.00096533,0.00044333,0.00090126,0.00027240,-0.00096212,0.00036059,0
 .00015859,0.00021478,-0.00053328,-0.00044177,-0.00038001,0.00008250,-0
 .00076913,0.00006848,-0.00034987,-0.00017442,0.00032439,-0.00280817,-0
 .00127943,0.00137701,0.03957944,-0.42148853,-0.15224890,0.02989163,0.0
 0037465,-0.05765118,-0.06019144,0.49556861,-0.00044475,0.00135739,0.00
 022845,-0.00060218,0.00041120,-0.00098075,0.00240835,0.00170777,0.0019
 5312,-0.00061855,-0.00672148,0.01675138,0.00719490,0.00367685,-0.00307
 235,-0.00169054,-0.00138083,0.00052026,0.00000682,0.00017104,0.0001883
 9,-0.00016197,0.00004746,-0.00021077,0.00151142,-0.00072200,0.00045707
 ,-0.00016342,0.00078918,0.00065939,-0.00113171,-0.00020402,-0.00058833
 ,-0.00043934,-0.00077336,0.00027331,0.00004101,-0.00003325,0.00003369,
 -0.00027793,0.00281527,0.00090438,0.04670410,-0.14760202,-0.18567970,0
 .04050019,-0.07771920,-0.05983619,-0.09283640,0.22418000,0.22839863\\-
 0.00000581,0.00000951,0.00000521,0.00000059,0.00000387,-0.00000618,0.0
 0001655,-0.00000828,0.00000114,-0.00000561,0.00002486,0.00000196,0.000
 01168,0.00000622,-0.00000609,-0.00000053,-0.00001506,0.00000475,0.0000
 0312,-0.00000280,0.00000129,-0.00000263,-0.00000171,0.00000098,0.00000
 346,0.00000580,0.00001581,-0.00000557,0.00000151,-0.00001311,-0.000004
 46,-0.00000298,-0.00000348,-0.00000385,-0.00000003,-0.00000528,0.00000
 111,0.00000513,0.00000163,-0.00000091,-0.00000013,0.00000241,-0.000006
 93,-0.00003956,-0.00000618,0.00000654,-0.00000827,-0.00000950,-0.00000
 674,0.00002192,0.00001464\\\@


 THE MEEK SHALL INHERIT THE EARTH.
 (THE REST OF US WILL ESCAPE TO THE STARS)
 Job cpu time:       0 days  0 hours 13 minutes 41.9 seconds.
 Elapsed time:       0 days  0 hours  1 minutes 22.3 seconds.
 File lengths (MBytes):  RWF=    118 Int=      0 D2E=      0 Chk=     10 Scr=      1
 Normal termination of Gaussian 16 at Tue Jul 18 12:43:11 2023.
