 Entering Gaussian System, Link 0=g16
 Initial command:
 /home/kimariyb/g16/l1.exe "/home/kimariyb/g16/scratch/Gau-8113.inp" -scrdir="/home/kimariyb/g16/scratch/"
 Default is to use a total of  10 processors:
                               10 via shared-memory
                                1 via Linda
 Entering Link 1 = /home/kimariyb/g16/l1.exe PID=      8116.
  
 Copyright (c) 1988,1990,1992,1993,1995,1998,2003,2009,2016,
            Gaussian, Inc.  All Rights Reserved.
  
 This is part of the Gaussian(R) 16 program.  It is based on
 the Gaussian(R) 09 system (copyright 2009, Gaussian, Inc.),
 the Gaussian(R) 03 system (copyright 2003, Gaussian, Inc.),
 the Gaussian(R) 98 system (copyright 1998, Gaussian, Inc.),
 the Gaussian(R) 94 system (copyright 1995, Gaussian, Inc.),
 the Gaussian 92(TM) system (copyright 1992, Gaussian, Inc.),
 the Gaussian 90(TM) system (copyright 1990, Gaussian, Inc.),
 the Gaussian 88(TM) system (copyright 1988, Gaussian, Inc.),
 the Gaussian 86(TM) system (copyright 1986, Carnegie Mellon
 University), and the Gaussian 82(TM) system (copyright 1983,
 Carnegie Mellon University). Gaussian is a federally registered
 trademark of Gaussian, Inc.
  
 This software contains proprietary and confidential information,
 including trade secrets, belonging to Gaussian, Inc.
  
 This software is provided under written license and may be
 used, copied, transmitted, or stored only in accord with that
 written license.
  
 The following legend is applicable only to US Government
 contracts under FAR:
  
                    RESTRICTED RIGHTS LEGEND
  
 Use, reproduction and disclosure by the US Government is
 subject to restrictions as set forth in subparagraphs (a)
 and (c) of the Commercial Computer Software - Restricted
 Rights clause in FAR 52.227-19.
  
 Gaussian, Inc.
 340 Quinnipiac St., Bldg. 40, Wallingford CT 06492
  
  
 ---------------------------------------------------------------
 Warning -- This program may not be used in any manner that
 competes with the business of Gaussian, Inc. or will provide
 assistance to any competitor of Gaussian, Inc.  The licensee
 of this program is prohibited from giving any competitor of
 Gaussian, Inc. access to this program.  By using this program,
 the user acknowledges that Gaussian, Inc. is engaged in the
 business of creating and licensing software in the field of
 computational chemistry and represents and warrants to the
 licensee that it is not a competitor of Gaussian, Inc. and that
 it will not use this program in any manner prohibited above.
 ---------------------------------------------------------------
  

 Cite this work as:
 Gaussian 16, Revision A.03,
 M. J. Frisch, G. W. Trucks, H. B. Schlegel, G. E. Scuseria, 
 M. A. Robb, J. R. Cheeseman, G. Scalmani, V. Barone, 
 G. A. Petersson, H. Nakatsuji, X. Li, M. Caricato, A. V. Marenich, 
 J. Bloino, B. G. Janesko, R. Gomperts, B. Mennucci, H. P. Hratchian, 
 J. V. Ortiz, A. F. Izmaylov, J. L. Sonnenberg, D. Williams-Young, 
 F. Ding, F. Lipparini, F. Egidi, J. Goings, B. Peng, A. Petrone, 
 T. Henderson, D. Ranasinghe, V. G. Zakrzewski, J. Gao, N. Rega, 
 G. Zheng, W. Liang, M. Hada, M. Ehara, K. Toyota, R. Fukuda, 
 J. Hasegawa, M. Ishida, T. Nakajima, Y. Honda, O. Kitao, H. Nakai, 
 T. Vreven, K. Throssell, J. A. Montgomery, Jr., J. E. Peralta, 
 F. Ogliaro, M. J. Bearpark, J. J. Heyd, E. N. Brothers, K. N. Kudin, 
 V. N. Staroverov, T. A. Keith, R. Kobayashi, J. Normand, 
 K. Raghavachari, A. P. Rendell, J. C. Burant, S. S. Iyengar, 
 J. Tomasi, M. Cossi, J. M. Millam, M. Klene, C. Adamo, R. Cammi, 
 J. W. Ochterski, R. L. Martin, K. Morokuma, O. Farkas, 
 J. B. Foresman, and D. J. Fox, Gaussian, Inc., Wallingford CT, 2016.
 
 ******************************************
 Gaussian 16:  ES64L-G16RevA.03 25-Dec-2016
                18-Jul-2023 
 ******************************************
 ---------------------------------------------
 # b3lyp/6-311g* opt freq scrf(solvent=ch2cl2)
 ---------------------------------------------
 1/18=20,19=15,26=3,38=1/1,3;
 2/9=110,12=2,17=6,18=5,40=1/2;
 3/5=4,6=6,7=1,11=2,25=1,30=1,70=2201,71=1,72=9,74=-5/1,2,3;
 4//1;
 5/5=2,38=5,53=9/2;
 6/7=2,8=2,9=2,10=2,28=1/1;
 7//1,2,3,16;
 1/18=20,19=15,26=3/3(2);
 2/9=110/2;
 99//99;
 2/9=110/2;
 3/5=4,6=6,7=1,11=2,25=1,30=1,70=2205,71=1,72=9,74=-5/1,2,3;
 4/5=5,16=3,69=1/1;
 5/5=2,38=5,53=9/2;
 7//1,2,3,16;
 1/18=20,19=15,26=3/3(-5);
 2/9=110/2;
 6/7=2,8=2,9=2,10=2,19=2,28=1/1;
 99/9=1/99;
 -------------------
 Title Card Required
 -------------------
 Symbolic Z-matrix:
 Charge =  0 Multiplicity = 1
 C                    -1.11753  -0.2814    0.02796 
 C                     0.28364  -0.28221   0.00281 
 C                     0.98491   0.92923  -0.00127 
 C                     0.2838    2.14075   0.00451 
 C                    -1.11737   2.14009   0.02967 
 C                    -1.82452   0.92936   0.07986 
 H                    -1.65083  -1.20882   0.00865 
 H                     0.81764  -1.20928  -0.01441 
 H                     0.81793   3.06777  -0.0114 
 H                    -1.65054   3.06762   0.01166 
 C                     2.52485   0.92913  -0.01509 
 H                     2.87245   0.92982  -1.02705 
 H                     2.88609   1.80241   0.48671 
 H                     2.88597   0.05511   0.48548 
 N                    -3.29227   0.92951  -0.00139 
 O                    -3.91459  -0.13932   0.04303 
 O                    -3.90566   1.99848  -0.11422 
 

 GradGradGradGradGradGradGradGradGradGradGradGradGradGradGradGradGradGrad
 Berny optimization.
 Initialization pass.
                           ----------------------------
                           !    Initial Parameters    !
                           ! (Angstroms and Degrees)  !
 --------------------------                            --------------------------
 ! Name  Definition              Value          Derivative Info.                !
 --------------------------------------------------------------------------------
 ! R1    R(1,2)                  1.4014         estimate D2E/DX2                !
 ! R2    R(1,6)                  1.403          estimate D2E/DX2                !
 ! R3    R(1,7)                  1.07           estimate D2E/DX2                !
 ! R4    R(2,3)                  1.3998         estimate D2E/DX2                !
 ! R5    R(2,8)                  1.07           estimate D2E/DX2                !
 ! R6    R(3,4)                  1.3998         estimate D2E/DX2                !
 ! R7    R(3,11)                 1.54           estimate D2E/DX2                !
 ! R8    R(4,5)                  1.4014         estimate D2E/DX2                !
 ! R9    R(4,9)                  1.07           estimate D2E/DX2                !
 ! R10   R(5,6)                  1.403          estimate D2E/DX2                !
 ! R11   R(5,10)                 1.07           estimate D2E/DX2                !
 ! R12   R(6,15)                 1.47           estimate D2E/DX2                !
 ! R13   R(11,12)                1.07           estimate D2E/DX2                !
 ! R14   R(11,13)                1.07           estimate D2E/DX2                !
 ! R15   R(11,14)                1.07           estimate D2E/DX2                !
 ! R16   R(15,16)                1.2376         estimate D2E/DX2                !
 ! R17   R(15,17)                1.2376         estimate D2E/DX2                !
 ! A1    A(2,1,6)              120.3306         estimate D2E/DX2                !
 ! A2    A(2,1,7)              119.8349         estimate D2E/DX2                !
 ! A3    A(6,1,7)              119.8346         estimate D2E/DX2                !
 ! A4    A(1,2,3)              120.03           estimate D2E/DX2                !
 ! A5    A(1,2,8)              119.9851         estimate D2E/DX2                !
 ! A6    A(3,2,8)              119.9848         estimate D2E/DX2                !
 ! A7    A(2,3,4)              119.8756         estimate D2E/DX2                !
 ! A8    A(2,3,11)             120.0621         estimate D2E/DX2                !
 ! A9    A(4,3,11)             120.0621         estimate D2E/DX2                !
 ! A10   A(3,4,5)              120.03           estimate D2E/DX2                !
 ! A11   A(3,4,9)              119.9848         estimate D2E/DX2                !
 ! A12   A(5,4,9)              119.9851         estimate D2E/DX2                !
 ! A13   A(4,5,6)              120.3306         estimate D2E/DX2                !
 ! A14   A(4,5,10)             119.8349         estimate D2E/DX2                !
 ! A15   A(6,5,10)             119.8346         estimate D2E/DX2                !
 ! A16   A(1,6,5)              119.301          estimate D2E/DX2                !
 ! A17   A(1,6,15)             120.0781         estimate D2E/DX2                !
 ! A18   A(5,6,15)             120.0781         estimate D2E/DX2                !
 ! A19   A(3,11,12)            109.4712         estimate D2E/DX2                !
 ! A20   A(3,11,13)            109.4712         estimate D2E/DX2                !
 ! A21   A(3,11,14)            109.4712         estimate D2E/DX2                !
 ! A22   A(12,11,13)           109.4712         estimate D2E/DX2                !
 ! A23   A(12,11,14)           109.4712         estimate D2E/DX2                !
 ! A24   A(13,11,14)           109.4712         estimate D2E/DX2                !
 ! A25   A(6,15,16)            120.0            estimate D2E/DX2                !
 ! A26   A(6,15,17)            120.0            estimate D2E/DX2                !
 ! A27   A(16,15,17)           120.0            estimate D2E/DX2                !
 ! D1    D(6,1,2,3)             -1.4526         estimate D2E/DX2                !
 ! D2    D(6,1,2,8)            178.6163         estimate D2E/DX2                !
 ! D3    D(7,1,2,3)            178.6194         estimate D2E/DX2                !
 ! D4    D(7,1,2,8)             -1.3117         estimate D2E/DX2                !
 ! D5    D(2,1,6,5)              3.5933         estimate D2E/DX2                !
 ! D6    D(2,1,6,15)           175.1519         estimate D2E/DX2                !
 ! D7    D(7,1,6,5)           -176.4787         estimate D2E/DX2                !
 ! D8    D(7,1,6,15)            -4.9201         estimate D2E/DX2                !
 ! D9    D(1,2,3,4)             -0.7229         estimate D2E/DX2                !
 ! D10   D(1,2,3,11)           179.4059         estimate D2E/DX2                !
 ! D11   D(8,2,3,4)            179.2082         estimate D2E/DX2                !
 ! D12   D(8,2,3,11)            -0.663          estimate D2E/DX2                !
 ! D13   D(2,3,4,5)              0.7229         estimate D2E/DX2                !
 ! D14   D(2,3,4,9)           -179.2082         estimate D2E/DX2                !
 ! D15   D(11,3,4,5)          -179.4059         estimate D2E/DX2                !
 ! D16   D(11,3,4,9)             0.663          estimate D2E/DX2                !
 ! D17   D(2,3,11,12)           89.9355         estimate D2E/DX2                !
 ! D18   D(2,3,11,13)         -150.0645         estimate D2E/DX2                !
 ! D19   D(2,3,11,14)          -30.0645         estimate D2E/DX2                !
 ! D20   D(4,3,11,12)          -89.9355         estimate D2E/DX2                !
 ! D21   D(4,3,11,13)           30.0645         estimate D2E/DX2                !
 ! D22   D(4,3,11,14)          150.0645         estimate D2E/DX2                !
 ! D23   D(3,4,5,6)              1.4526         estimate D2E/DX2                !
 ! D24   D(3,4,5,10)          -178.6194         estimate D2E/DX2                !
 ! D25   D(9,4,5,6)           -178.6163         estimate D2E/DX2                !
 ! D26   D(9,4,5,10)             1.3117         estimate D2E/DX2                !
 ! D27   D(4,5,6,1)             -3.5933         estimate D2E/DX2                !
 ! D28   D(4,5,6,15)          -175.1519         estimate D2E/DX2                !
 ! D29   D(10,5,6,1)           176.4787         estimate D2E/DX2                !
 ! D30   D(10,5,6,15)            4.9201         estimate D2E/DX2                !
 ! D31   D(1,6,15,16)            8.5074         estimate D2E/DX2                !
 ! D32   D(1,6,15,17)         -171.4926         estimate D2E/DX2                !
 ! D33   D(5,6,15,16)         -180.0            estimate D2E/DX2                !
 ! D34   D(5,6,15,17)            0.0            estimate D2E/DX2                !
 --------------------------------------------------------------------------------
 Trust Radius=3.00D-01 FncErr=1.00D-07 GrdErr=1.00D-06 EigMax=2.50D+02 EigMin=1.00D-04
 Number of steps in this run=     88 maximum allowed number of steps=    102.
 GradGradGradGradGradGradGradGradGradGradGradGradGradGradGradGradGradGrad

                          Input orientation:                          
 ---------------------------------------------------------------------
 Center     Atomic      Atomic             Coordinates (Angstroms)
 Number     Number       Type             X           Y           Z
 ---------------------------------------------------------------------
      1          6           0       -1.117533   -0.281399    0.027963
      2          6           0        0.283642   -0.282213    0.002808
      3          6           0        0.984911    0.929227   -0.001267
      4          6           0        0.283805    2.140754    0.004513
      5          6           0       -1.117370    2.140092    0.029667
      6          6           0       -1.824517    0.929358    0.079863
      7          1           0       -1.650831   -1.208825    0.008651
      8          1           0        0.817640   -1.209279   -0.014406
      9          1           0        0.817927    3.067772   -0.011395
     10          1           0       -1.650544    3.067617    0.011662
     11          6           0        2.524849    0.929133   -0.015086
     12          1           0        2.872449    0.929822   -1.027052
     13          1           0        2.886086    1.802407    0.486710
     14          1           0        2.885969    0.055105    0.485481
     15          7           0       -3.292270    0.929514   -0.001390
     16          8           0       -3.914590   -0.139316    0.043030
     17          8           0       -3.905658    1.998476   -0.114218
 ---------------------------------------------------------------------
                    Distance matrix (angstroms):
                    1          2          3          4          5
     1  C    0.000000
     2  C    1.401401   0.000000
     3  C    2.426260   1.399779   0.000000
     4  C    2.798414   2.422968   1.399779   0.000000
     5  C    2.421492   2.798414   2.426260   1.401401   0.000000
     6  C    1.403016   2.432731   2.810600   2.432731   1.403016
     7  H    1.070000   2.144955   3.393892   3.868141   3.391205
     8  H    2.146543   1.070000   2.145078   3.392353   3.868397
     9  H    3.868397   3.392353   2.145078   1.070000   2.146543
    10  H    3.391205   3.868141   3.393892   2.144955   1.070000
    11  C    3.838514   2.547683   1.540000   2.547683   3.838514
    12  H    4.301171   3.038349   2.148263   3.038349   4.301171
    13  H    4.536702   3.369350   2.148263   2.668120   4.043586
    14  H    4.043586   2.668120   2.148263   3.369350   4.536702
    15  N    2.489308   3.775639   4.277181   3.775639   2.489308
    16  O    2.800704   4.200856   5.014864   4.777732   3.608368
    17  O    3.604398   4.771318   5.007367   4.193559   2.795587
                    6          7          8          9         10
     6  C    0.000000
     7  H    2.146408   0.000000
     8  H    3.400537   2.468579   0.000000
     9  H    3.400537   4.938061   4.277051   0.000000
    10  H    2.146408   4.276443   4.938061   2.468579   0.000000
    11  C    4.350403   4.691241   2.736306   2.736306   4.691241
    12  H    4.825635   5.109458   3.134238   3.134238   5.109458
    13  H    4.808069   5.466231   3.687797   2.475185   4.733650
    14  H    4.808069   4.733650   2.475185   3.687797   5.466231
    15  N    1.470000   2.695722   4.633137   4.633137   2.695722
    16  O    2.347728   2.503924   4.852022   5.717087   3.925724
    17  O    2.347728   3.922514   5.710446   4.844194   2.498889
                   11         12         13         14         15
    11  C    0.000000
    12  H    1.070000   0.000000
    13  H    1.070000   1.747303   0.000000
    14  H    1.070000   1.747303   1.747303   0.000000
    15  N    5.817136   6.249460   6.258776   6.258776   0.000000
    16  O    6.527736   6.953563   7.086349   6.817710   1.237600
    17  O    6.519566   6.922285   6.821096   7.089607   1.237600
                   16         17
    16  O    0.000000
    17  O    2.143586   0.000000
 Stoichiometry    C7H7NO2
 Framework group  C1[X(C7H7NO2)]
 Deg. of freedom    45
 Full point group                 C1      NOp   1
 Largest Abelian subgroup         C1      NOp   1
 Largest concise Abelian subgroup C1      NOp   1
                         Standard orientation:                         
 ---------------------------------------------------------------------
 Center     Atomic      Atomic             Coordinates (Angstroms)
 Number     Number       Type             X           Y           Z
 ---------------------------------------------------------------------
      1          6           0       -0.027127    1.211034   -0.004100
      2          6           0        1.373993    1.211611    0.023966
      3          6           0        2.075490    0.000410    0.007388
      4          6           0        1.374635   -1.210922   -0.021949
      5          6           0       -0.026485   -1.210023   -0.049988
      6          6           0       -0.733765    0.001313   -0.079547
      7          1           0       -0.560646    2.137869    0.031027
      8          1           0        1.907772    2.138293    0.059198
      9          1           0        1.908904   -2.137990   -0.021853
     10          1           0       -0.559514   -2.137806   -0.050013
     11          6           0        3.615396    0.000495    0.024394
     12          1           0        3.960904   -0.018604    1.036896
     13          1           0        3.977841   -0.863420   -0.492504
     14          1           0        3.977378    0.883569   -0.459393
     15          7           0       -2.201682   -0.000557   -0.001349
     16          8           0       -2.824119    1.068807   -0.027548
     17          8           0       -2.815093   -1.071497    0.090685
 ---------------------------------------------------------------------
 Rotational constants (GHZ):           3.9237359           0.7914851           0.6617629
 Standard basis: 6-311G(d) (5D, 7F)
 There are   211 symmetry adapted cartesian basis functions of A   symmetry.
 There are   201 symmetry adapted basis functions of A   symmetry.
   201 basis functions,   355 primitive gaussians,   211 cartesian basis functions
    36 alpha electrons       36 beta electrons
       nuclear repulsion energy       488.9744847476 Hartrees.
 NAtoms=   17 NActive=   17 NUniq=   17 SFac= 1.00D+00 NAtFMM=   60 NAOKFM=F Big=F
 Integral buffers will be    131072 words long.
 Raffenetti 2 integral format.
 Two-electron integral symmetry is turned on.
 ------------------------------------------------------------------------------
 Polarizable Continuum Model (PCM)
 =================================
 Model                : PCM.
 Atomic radii         : UFF (Universal Force Field).
 Polarization charges : Total charges.
 Charge compensation  : None.
 Solution method      : On-the-fly selection.
 Cavity type          : Scaled VdW (van der Waals Surface) (Alpha=1.100).
 Cavity algorithm     : GePol (No added spheres)
                        Default sphere list used, NSphG=   17.
                        Lebedev-Laikov grids with approx.  5.0 points / Ang**2.
                        Smoothing algorithm: York/Karplus (Gamma=1.0000).
                        Polarization charges: spherical gaussians, with
                                              point-specific exponents (IZeta= 3).
                        Self-potential: point-specific (ISelfS= 7).
                        Self-field    : sphere-specific E.n sum rule (ISelfD= 2).
 1st derivatives      : Analytical E(r).r(x)/FMM algorithm (CHGder, D1EAlg=3).
                        Cavity 1st derivative terms included.
 Solvent              : Dichloromethane, Eps=   8.930000 Eps(inf)=   2.028346
 ------------------------------------------------------------------------------
 Spheres list:
 ISph  on   Nord     Re0    Alpha      Xe            Ye            Ze
    1   C      1    1.9255  1.100     -0.027127      1.211034     -0.004100
    2   C      2    1.9255  1.100      1.373993      1.211611      0.023966
    3   C      3    1.9255  1.100      2.075490      0.000410      0.007388
    4   C      4    1.9255  1.100      1.374635     -1.210922     -0.021949
    5   C      5    1.9255  1.100     -0.026485     -1.210023     -0.049988
    6   C      6    1.9255  1.100     -0.733765      0.001313     -0.079547
    7   H      7    1.4430  1.100     -0.560646      2.137869      0.031027
    8   H      8    1.4430  1.100      1.907772      2.138293      0.059198
    9   H      9    1.4430  1.100      1.908904     -2.137990     -0.021853
   10   H     10    1.4430  1.100     -0.559514     -2.137806     -0.050013
   11   C     11    1.9255  1.100      3.615396      0.000495      0.024394
   12   H     12    1.4430  1.100      3.960904     -0.018604      1.036896
   13   H     13    1.4430  1.100      3.977841     -0.863420     -0.492504
   14   H     14    1.4430  1.100      3.977378      0.883569     -0.459393
   15   N     15    1.8300  1.100     -2.201682     -0.000557     -0.001349
   16   O     16    1.7500  1.100     -2.824119      1.068807     -0.027548
   17   O     17    1.7500  1.100     -2.815093     -1.071497      0.090685
 ------------------------------------------------------------------------------
 One-electron integrals computed using PRISM.
 NBasis=   201 RedAO= T EigKep=  2.02D-04  NBF=   201
 NBsUse=   201 1.00D-06 EigRej= -1.00D+00 NBFU=   201
 ExpMin= 1.03D-01 ExpMax= 8.59D+03 ExpMxC= 1.30D+03 IAcc=3 IRadAn=         5 AccDes= 0.00D+00
 Harris functional with IExCor=  402 and IRadAn=       5 diagonalized for initial guess.
 HarFok:  IExCor=  402 AccDes= 0.00D+00 IRadAn=         5 IDoV= 1 UseB2=F ITyADJ=14
 ICtDFT=  3500011 ScaDFX=  1.000000  1.000000  1.000000  1.000000
 FoFCou: FMM=F IPFlag=           0 FMFlag=      100000 FMFlg1=           0
         NFxFlg=           0 DoJE=T BraDBF=F KetDBF=T FulRan=T
         wScrn=  0.000000 ICntrl=       500 IOpCl=  0 I1Cent=   200000004 NGrid=           0
         NMat0=    1 NMatS0=      1 NMatT0=    0 NMatD0=    1 NMtDS0=    0 NMtDT0=    0
 Petite list used in FoFCou.
 Requested convergence on RMS density matrix=1.00D-08 within 128 cycles.
 Requested convergence on MAX density matrix=1.00D-06.
 Requested convergence on             energy=1.00D-06.
 No special actions if energy rises.
 Inv3:  Mode=1 IEnd=     6741003.
 Iteration    1 A*A^-1 deviation from unit magnitude is 3.77D-15 for    232.
 Iteration    1 A*A^-1 deviation from orthogonality  is 1.67D-15 for   1060    339.
 Iteration    1 A^-1*A deviation from unit magnitude is 3.77D-15 for    232.
 Iteration    1 A^-1*A deviation from orthogonality  is 1.88D-15 for    895    815.
 Error on total polarization charges =  0.00838
 SCF Done:  E(RB3LYP) =  -476.183245942     A.U. after   13 cycles
            NFock= 13  Conv=0.65D-08     -V/T= 2.0036

 **********************************************************************

            Population analysis using the SCF density.

 **********************************************************************

 Orbital symmetries:
       Occupied  (A) (A) (A) (A) (A) (A) (A) (A) (A) (A) (A) (A)
                 (A) (A) (A) (A) (A) (A) (A) (A) (A) (A) (A) (A)
                 (A) (A) (A) (A) (A) (A) (A) (A) (A) (A) (A) (A)
       Virtual   (A) (A) (A) (A) (A) (A) (A) (A) (A) (A) (A) (A)
                 (A) (A) (A) (A) (A) (A) (A) (A) (A) (A) (A) (A)
                 (A) (A) (A) (A) (A) (A) (A) (A) (A) (A) (A) (A)
                 (A) (A) (A) (A) (A) (A) (A) (A) (A) (A) (A) (A)
                 (A) (A) (A) (A) (A) (A) (A) (A) (A) (A) (A) (A)
                 (A) (A) (A) (A) (A) (A) (A) (A) (A) (A) (A) (A)
                 (A) (A) (A) (A) (A) (A) (A) (A) (A) (A) (A) (A)
                 (A) (A) (A) (A) (A) (A) (A) (A) (A) (A) (A) (A)
                 (A) (A) (A) (A) (A) (A) (A) (A) (A) (A) (A) (A)
                 (A) (A) (A) (A) (A) (A) (A) (A) (A) (A) (A) (A)
                 (A) (A) (A) (A) (A) (A) (A) (A) (A) (A) (A) (A)
                 (A) (A) (A) (A) (A) (A) (A) (A) (A) (A) (A) (A)
                 (A) (A) (A) (A) (A) (A) (A) (A) (A) (A) (A) (A)
                 (A) (A) (A) (A) (A) (A) (A) (A) (A)
 The electronic state is 1-A.
 Alpha  occ. eigenvalues --  -19.15556 -19.15551 -14.55712 -10.24487 -10.21058
 Alpha  occ. eigenvalues --  -10.20609 -10.20596 -10.19424 -10.19421 -10.17054
 Alpha  occ. eigenvalues --   -1.23252  -1.05135  -0.89434  -0.82488  -0.77398
 Alpha  occ. eigenvalues --   -0.74686  -0.67360  -0.63913  -0.59599  -0.56650
 Alpha  occ. eigenvalues --   -0.53993  -0.52358  -0.48885  -0.48409  -0.47037
 Alpha  occ. eigenvalues --   -0.44976  -0.43964  -0.40761  -0.38296  -0.37339
 Alpha  occ. eigenvalues --   -0.37063  -0.32729  -0.31961  -0.29826  -0.27885
 Alpha  occ. eigenvalues --   -0.27765
 Alpha virt. eigenvalues --   -0.10253  -0.03463  -0.00735   0.04621   0.06856
 Alpha virt. eigenvalues --    0.07659   0.10573   0.11660   0.12026   0.13945
 Alpha virt. eigenvalues --    0.14346   0.15643   0.18374   0.23148   0.23616
 Alpha virt. eigenvalues --    0.25873   0.28217   0.28264   0.29305   0.32397
 Alpha virt. eigenvalues --    0.36116   0.36280   0.37152   0.37520   0.38416
 Alpha virt. eigenvalues --    0.41479   0.42390   0.43492   0.43807   0.45859
 Alpha virt. eigenvalues --    0.46138   0.46945   0.50958   0.53202   0.53445
 Alpha virt. eigenvalues --    0.55306   0.58213   0.59245   0.60010   0.60638
 Alpha virt. eigenvalues --    0.61257   0.61696   0.62467   0.64170   0.65759
 Alpha virt. eigenvalues --    0.68007   0.70092   0.71611   0.75197   0.77631
 Alpha virt. eigenvalues --    0.78017   0.78845   0.79596   0.81690   0.82500
 Alpha virt. eigenvalues --    0.84915   0.86519   0.88556   0.88862   0.94913
 Alpha virt. eigenvalues --    0.95310   0.99841   1.01552   1.02213   1.03727
 Alpha virt. eigenvalues --    1.11851   1.14223   1.17738   1.18339   1.21007
 Alpha virt. eigenvalues --    1.21867   1.24443   1.33328   1.38920   1.40449
 Alpha virt. eigenvalues --    1.43729   1.48068   1.50310   1.51321   1.52691
 Alpha virt. eigenvalues --    1.53790   1.56909   1.61143   1.66150   1.66502
 Alpha virt. eigenvalues --    1.68325   1.69887   1.74483   1.77822   1.80022
 Alpha virt. eigenvalues --    1.80736   1.88786   1.89958   1.91648   1.93822
 Alpha virt. eigenvalues --    1.96990   2.03255   2.09777   2.13295   2.14077
 Alpha virt. eigenvalues --    2.22310   2.27346   2.27569   2.28288   2.30468
 Alpha virt. eigenvalues --    2.37314   2.37752   2.38547   2.44602   2.50877
 Alpha virt. eigenvalues --    2.51557   2.58460   2.61186   2.63371   2.66169
 Alpha virt. eigenvalues --    2.69265   2.78715   2.79643   2.81140   2.82155
 Alpha virt. eigenvalues --    2.82963   2.85759   2.86970   3.00666   3.01523
 Alpha virt. eigenvalues --    3.08748   3.10758   3.16656   3.18896   3.19092
 Alpha virt. eigenvalues --    3.20051   3.26925   3.27841   3.29076   3.32290
 Alpha virt. eigenvalues --    3.37051   3.38129   3.50132   3.52841   3.59534
 Alpha virt. eigenvalues --    3.61853   3.69621   3.72505   3.81858   3.93159
 Alpha virt. eigenvalues --    4.05661   4.38907   4.56782   4.75365   4.80520
 Alpha virt. eigenvalues --    4.82644   4.88676   4.95267   5.54493   5.98242
 Alpha virt. eigenvalues --   23.19120  23.55581  23.77398  23.78114  23.97646
 Alpha virt. eigenvalues --   23.99949  24.08784  35.33007  49.78991  49.92870
          Condensed to atoms (all electrons):
               1          2          3          4          5          6
     1  C    5.095857   0.501037  -0.026665  -0.039074  -0.077915   0.411337
     2  C    0.501037   5.001428   0.521044  -0.064758  -0.039401  -0.031325
     3  C   -0.026665   0.521044   4.893506   0.519772  -0.025529  -0.056388
     4  C   -0.039074  -0.064758   0.519772   5.004302   0.495800  -0.028291
     5  C   -0.077915  -0.039401  -0.025529   0.495800   5.099321   0.413601
     6  C    0.411337  -0.031325  -0.056388  -0.028291   0.413601   5.175621
     7  H    0.379942  -0.028990   0.006294  -0.001037   0.006312  -0.048312
     8  H   -0.036409   0.396846  -0.042624   0.006247  -0.000765   0.006278
     9  H   -0.000755   0.006235  -0.042483   0.396955  -0.036431   0.006133
    10  H    0.006232  -0.000965   0.006190  -0.029058   0.379763  -0.047510
    11  C    0.005517  -0.058879   0.318902  -0.058928   0.005525  -0.000042
    12  H   -0.000496  -0.002093  -0.033114  -0.002220  -0.000476   0.000148
    13  H   -0.000151   0.004803  -0.042346  -0.005858   0.000607  -0.000072
    14  H    0.000626  -0.005962  -0.042296   0.004847  -0.000154  -0.000078
    15  N   -0.031526   0.003766  -0.000347   0.003803  -0.034398   0.221576
    16  O    0.019523   0.000877   0.000085  -0.000138   0.008586  -0.129465
    17  O    0.008068  -0.000139   0.000087   0.000902   0.020655  -0.130535
               7          8          9         10         11         12
     1  C    0.379942  -0.036409  -0.000755   0.006232   0.005517  -0.000496
     2  C   -0.028990   0.396846   0.006235  -0.000965  -0.058879  -0.002093
     3  C    0.006294  -0.042624  -0.042483   0.006190   0.318902  -0.033114
     4  C   -0.001037   0.006247   0.396955  -0.029058  -0.058928  -0.002220
     5  C    0.006312  -0.000765  -0.036431   0.379763   0.005525  -0.000476
     6  C   -0.048312   0.006278   0.006133  -0.047510  -0.000042   0.000148
     7  H    0.431401  -0.006386   0.000060  -0.000369  -0.000241   0.000005
     8  H   -0.006386   0.450326  -0.000297   0.000060  -0.005190   0.000449
     9  H    0.000060  -0.000297   0.450167  -0.006327  -0.005180   0.000442
    10  H   -0.000369   0.000060  -0.006327   0.431020  -0.000244   0.000006
    11  C   -0.000241  -0.005190  -0.005180  -0.000244   5.307313   0.376816
    12  H    0.000005   0.000449   0.000442   0.000006   0.376816   0.458871
    13  H    0.000015   0.000003   0.001714  -0.000003   0.394102  -0.023562
    14  H   -0.000002   0.001699   0.000004   0.000014   0.394083  -0.023594
    15  N   -0.007689  -0.000106  -0.000105  -0.007661   0.000002   0.000000
    16  O    0.023022  -0.000073   0.000001   0.000789   0.000000  -0.000000
    17  O    0.000803   0.000002  -0.000074   0.022971   0.000000  -0.000000
              13         14         15         16         17
     1  C   -0.000151   0.000626  -0.031526   0.019523   0.008068
     2  C    0.004803  -0.005962   0.003766   0.000877  -0.000139
     3  C   -0.042346  -0.042296  -0.000347   0.000085   0.000087
     4  C   -0.005858   0.004847   0.003803  -0.000138   0.000902
     5  C    0.000607  -0.000154  -0.034398   0.008586   0.020655
     6  C   -0.000072  -0.000078   0.221576  -0.129465  -0.130535
     7  H    0.000015  -0.000002  -0.007689   0.023022   0.000803
     8  H    0.000003   0.001699  -0.000106  -0.000073   0.000002
     9  H    0.001714   0.000004  -0.000105   0.000001  -0.000074
    10  H   -0.000003   0.000014  -0.007661   0.000789   0.022971
    11  C    0.394102   0.394083   0.000002   0.000000   0.000000
    12  H   -0.023562  -0.023594   0.000000  -0.000000  -0.000000
    13  H    0.460080  -0.026860  -0.000000   0.000000   0.000000
    14  H   -0.026860   0.460130  -0.000000   0.000000   0.000000
    15  N   -0.000000  -0.000000   6.065336   0.316057   0.319497
    16  O    0.000000   0.000000   0.316057   8.190591  -0.130992
    17  O    0.000000   0.000000   0.319497  -0.130992   8.188358
 Mulliken charges:
               1
     1  C   -0.215148
     2  C   -0.203523
     3  C    0.045912
     4  C   -0.203265
     5  C   -0.215102
     6  C    0.237325
     7  H    0.245170
     8  H    0.229941
     9  H    0.229940
    10  H    0.245091
    11  C   -0.673557
    12  H    0.248817
    13  H    0.237527
    14  H    0.237542
    15  N    0.151795
    16  O   -0.298863
    17  O   -0.299603
 Sum of Mulliken charges =  -0.00000
 Mulliken charges with hydrogens summed into heavy atoms:
               1
     1  C    0.030023
     2  C    0.026418
     3  C    0.045912
     4  C    0.026675
     5  C    0.029989
     6  C    0.237325
    11  C    0.050329
    15  N    0.151795
    16  O   -0.298863
    17  O   -0.299603
 Electronic spatial extent (au):  <R**2>=           1637.8724
 Charge=             -0.0000 electrons
 Dipole moment (field-independent basis, Debye):
    X=              6.8931    Y=              0.0005    Z=             -0.0199  Tot=              6.8932
 Quadrupole moment (field-independent basis, Debye-Ang):
   XX=            -65.2201   YY=            -53.8947   ZZ=            -59.0892
   XY=              0.0108   XZ=              0.6048   YZ=              0.4839
 Traceless Quadrupole moment (field-independent basis, Debye-Ang):
   XX=             -5.8188   YY=              5.5067   ZZ=              0.3121
   XY=              0.0108   XZ=              0.6048   YZ=              0.4839
 Octapole moment (field-independent basis, Debye-Ang**2):
  XXX=             57.5902  YYY=              0.0266  ZZZ=              1.3870  XYY=              9.5653
  XXY=             -0.1006  XXZ=             -0.4791  XZZ=            -10.8569  YZZ=             -0.0270
  YYZ=             -0.4061  XYZ=             -0.6595
 Hexadecapole moment (field-independent basis, Debye-Ang**3):
 XXXX=          -1730.4402 YYYY=           -354.4813 ZZZZ=            -66.9394 XXXY=              0.3293
 XXXZ=              5.1262 YYYX=              0.1391 YYYZ=              1.1759 ZZZX=              2.4447
 ZZZY=             -0.5782 XXYY=           -348.1929 XXZZ=           -276.2513 YYZZ=            -81.6484
 XXYZ=              2.3326 YYXZ=             -2.2415 ZZXY=             -0.1834
 N-N= 4.889744847476D+02 E-N=-2.089725129748D+03  KE= 4.744932264655D+02
 D1PCM: PCM CHGder 1st derivatives, ID1Alg=3 FixD1E=F DoIter=F DoCFld=F I1PDM=0.
 Calling FoFJK, ICntrl=      2127 FMM=F ISym2X=0 I1Cent= 0 IOpClX= 0 NMat=1 NMatS=1 NMatT=0.
 ***** Axes restored to original set *****
 -------------------------------------------------------------------
 Center     Atomic                   Forces (Hartrees/Bohr)
 Number     Number              X              Y              Z
 -------------------------------------------------------------------
      1        6           0.004982091    0.004261550    0.002821229
      2        6          -0.019103155    0.016374144    0.000838604
      3        6           0.019477537   -0.000080221    0.001191508
      4        6          -0.019234378   -0.016299682    0.000878029
      5        6           0.005177486   -0.004262992    0.002183165
      6        6           0.013889616    0.000125063   -0.011472194
      7        1          -0.005672544   -0.007212249    0.000458271
      8        1           0.003669046   -0.009119996   -0.000325816
      9        1           0.003682148    0.009126792   -0.000171887
     10        1          -0.005636601    0.007198228    0.000387210
     11        6          -0.035438016   -0.000004872    0.003060682
     12        1           0.007642036    0.000010278   -0.014272775
     13        1           0.007694480    0.011180251    0.005430756
     14        1           0.007696894   -0.011196318    0.005416852
     15        7          -0.026986633    0.000010674    0.001049653
     16        8           0.019109521    0.000726069    0.000951830
     17        8           0.019050471   -0.000836719    0.001574885
 -------------------------------------------------------------------
 Cartesian Forces:  Max     0.035438016 RMS     0.010714680

 GradGradGradGradGradGradGradGradGradGradGradGradGradGradGradGradGradGrad
 Berny optimization.
 FormGI is forming the generalized inverse of G from B-inverse, IUseBI=4.
 Internal  Forces:  Max     0.025192571 RMS     0.006562420
 Search for a local minimum.
 Step number   1 out of a maximum of   88
 All quantities printed in internal units (Hartrees-Bohrs-Radians)
 Mixed Optimization -- RFO/linear search
 Second derivative matrix not updated -- first step.
 ITU=  0
     Eigenvalues ---    0.00237   0.00766   0.00766   0.01344   0.01702
     Eigenvalues ---    0.02055   0.02059   0.02062   0.02071   0.02080
     Eigenvalues ---    0.02082   0.02089   0.07243   0.07243   0.16000
     Eigenvalues ---    0.16000   0.16000   0.16000   0.16000   0.16000
     Eigenvalues ---    0.16000   0.21988   0.22947   0.23946   0.24721
     Eigenvalues ---    0.25000   0.25000   0.25000   0.28519   0.35740
     Eigenvalues ---    0.37230   0.37230   0.37230   0.37230   0.37230
     Eigenvalues ---    0.37230   0.37230   0.41231   0.41629   0.45169
     Eigenvalues ---    0.45389   0.45406   0.45610   0.87992   0.87992
 RFO step:  Lambda=-1.10738137D-02 EMin= 2.36824135D-03
 Linear search not attempted -- first point.
 Iteration  1 RMS(Cart)=  0.03732488 RMS(Int)=  0.00087307
 Iteration  2 RMS(Cart)=  0.00102099 RMS(Int)=  0.00040571
 Iteration  3 RMS(Cart)=  0.00000048 RMS(Int)=  0.00040571
 Variable       Old X    -DE/DX   Delta X   Delta X   Delta X     New X
                                 (Linear)    (Quad)   (Total)
    R1        2.64826  -0.01195   0.00000  -0.02570  -0.02571   2.62256
    R2        2.65132  -0.00924   0.00000  -0.02073  -0.02057   2.63074
    R3        2.02201   0.00907   0.00000   0.02366   0.02366   2.04567
    R4        2.64520   0.00076   0.00000   0.00237   0.00220   2.64740
    R5        2.02201   0.00974   0.00000   0.02540   0.02540   2.04741
    R6        2.64520   0.00087   0.00000   0.00261   0.00245   2.64765
    R7        2.91018  -0.01240   0.00000  -0.04186  -0.04186   2.86832
    R8        2.64826  -0.01200   0.00000  -0.02581  -0.02581   2.62245
    R9        2.02201   0.00975   0.00000   0.02543   0.02543   2.04743
   R10        2.65132  -0.00914   0.00000  -0.02053  -0.02037   2.63095
   R11        2.02201   0.00904   0.00000   0.02358   0.02358   2.04559
   R12        2.77790  -0.01135   0.00000  -0.03081  -0.03081   2.74708
   R13        2.02201   0.01598   0.00000   0.04169   0.04169   2.06369
   R14        2.02201   0.01427   0.00000   0.03722   0.03722   2.05923
   R15        2.02201   0.01428   0.00000   0.03724   0.03724   2.05925
   R16        2.33873  -0.01020   0.00000  -0.01145  -0.01145   2.32728
   R17        2.33873  -0.01031   0.00000  -0.01157  -0.01157   2.32716
    A1        2.10016  -0.00611   0.00000  -0.02776  -0.02753   2.07264
    A2        2.09151   0.00441   0.00000   0.02180   0.02168   2.11320
    A3        2.09151   0.00170   0.00000   0.00596   0.00584   2.09735
    A4        2.09492   0.00285   0.00000   0.01409   0.01399   2.10891
    A5        2.09414  -0.00281   0.00000  -0.01514  -0.01510   2.07904
    A6        2.09413  -0.00004   0.00000   0.00106   0.00110   2.09524
    A7        2.09222  -0.00443   0.00000  -0.01404  -0.01432   2.07791
    A8        2.09548   0.00220   0.00000   0.00696   0.00707   2.10255
    A9        2.09548   0.00223   0.00000   0.00706   0.00717   2.10265
   A10        2.09492   0.00286   0.00000   0.01412   0.01404   2.10896
   A11        2.09413  -0.00005   0.00000   0.00101   0.00105   2.09518
   A12        2.09414  -0.00281   0.00000  -0.01514  -0.01510   2.07904
   A13        2.10016  -0.00614   0.00000  -0.02789  -0.02765   2.07252
   A14        2.09151   0.00440   0.00000   0.02172   0.02159   2.11311
   A15        2.09151   0.00174   0.00000   0.00617   0.00604   2.09755
   A16        2.08220   0.01103   0.00000   0.04372   0.04299   2.12518
   A17        2.09576  -0.00556   0.00000  -0.01677  -0.01823   2.07753
   A18        2.09576  -0.00515   0.00000  -0.01520  -0.01665   2.07910
   A19        1.91063   0.00208   0.00000   0.01004   0.00995   1.92059
   A20        1.91063   0.00337   0.00000   0.02074   0.02052   1.93116
   A21        1.91063   0.00337   0.00000   0.02076   0.02055   1.93118
   A22        1.91063  -0.00316   0.00000  -0.02058  -0.02066   1.88997
   A23        1.91063  -0.00316   0.00000  -0.02058  -0.02066   1.88997
   A24        1.91063  -0.00250   0.00000  -0.01037  -0.01069   1.89994
   A25        2.09440  -0.01270   0.00000  -0.04865  -0.04873   2.04567
   A26        2.09440  -0.01249   0.00000  -0.04784  -0.04792   2.04647
   A27        2.09440   0.02519   0.00000   0.09650   0.09642   2.19081
    D1       -0.02535   0.00061   0.00000   0.01775   0.01734  -0.00801
    D2        3.11744   0.00061   0.00000   0.01829   0.01800   3.13545
    D3        3.11750   0.00065   0.00000   0.01949   0.01923   3.13672
    D4       -0.02289   0.00066   0.00000   0.02002   0.01988  -0.00301
    D5        0.06271  -0.00083   0.00000  -0.03923  -0.03988   0.02284
    D6        3.05698   0.00122   0.00000   0.05024   0.05075   3.10772
    D7       -3.08014  -0.00088   0.00000  -0.04095  -0.04173  -3.12186
    D8       -0.08587   0.00117   0.00000   0.04852   0.04889  -0.03698
    D9       -0.01262   0.00034   0.00000   0.00877   0.00864  -0.00398
   D10        3.13122   0.00060   0.00000   0.02013   0.02009  -3.13187
   D11        3.12777   0.00034   0.00000   0.00822   0.00796   3.13574
   D12       -0.01157   0.00059   0.00000   0.01958   0.01941   0.00784
   D13        0.01262  -0.00042   0.00000  -0.01095  -0.01086   0.00176
   D14       -3.12777  -0.00038   0.00000  -0.00962  -0.00939  -3.13717
   D15       -3.13122  -0.00067   0.00000  -0.02231  -0.02231   3.12965
   D16        0.01157  -0.00064   0.00000  -0.02098  -0.02084  -0.00927
   D17        1.56967  -0.00013   0.00000  -0.00556  -0.00568   1.56399
   D18       -2.61912  -0.00066   0.00000  -0.01193  -0.01214  -2.63126
   D19       -0.52472   0.00040   0.00000   0.00078   0.00077  -0.52396
   D20       -1.56967   0.00013   0.00000   0.00585   0.00596  -1.56371
   D21        0.52472  -0.00040   0.00000  -0.00052  -0.00050   0.52423
   D22        2.61912   0.00066   0.00000   0.01220   0.01241   2.63153
   D23        0.02535  -0.00046   0.00000  -0.01337  -0.01300   0.01236
   D24       -3.11750  -0.00057   0.00000  -0.01710  -0.01687  -3.13437
   D25       -3.11744  -0.00049   0.00000  -0.01469  -0.01444  -3.13188
   D26        0.02289  -0.00060   0.00000  -0.01842  -0.01831   0.00458
   D27       -0.06271   0.00076   0.00000   0.03704   0.03772  -0.02499
   D28       -3.05698  -0.00125   0.00000  -0.05229  -0.05285  -3.10983
   D29        3.08014   0.00087   0.00000   0.04076   0.04155   3.12168
   D30        0.08587  -0.00115   0.00000  -0.04857  -0.04902   0.03685
   D31        0.14848  -0.00177   0.00000  -0.05041  -0.04947   0.09901
   D32       -2.99311  -0.00218   0.00000  -0.07238  -0.07144  -3.06455
   D33       -3.14159   0.00167   0.00000   0.04476   0.04382  -3.09777
   D34        0.00000   0.00125   0.00000   0.02278   0.02185   0.02185
         Item               Value     Threshold  Converged?
 Maximum Force            0.025193     0.000450     NO 
 RMS     Force            0.006562     0.000300     NO 
 Maximum Displacement     0.177970     0.001800     NO 
 RMS     Displacement     0.037806     0.001200     NO 
 Predicted change in Energy=-5.898577D-03
 GradGradGradGradGradGradGradGradGradGradGradGradGradGradGradGradGradGrad

                          Input orientation:                          
 ---------------------------------------------------------------------
 Center     Atomic      Atomic             Coordinates (Angstroms)
 Number     Number       Type             X           Y           Z
 ---------------------------------------------------------------------
      1          6           0       -1.125936   -0.286440    0.013635
      2          6           0        0.261827   -0.278059    0.008468
      3          6           0        0.972564    0.929211    0.008319
      4          6           0        0.262337    2.136930    0.008607
      5          6           0       -1.125373    2.146036    0.011130
      6          6           0       -1.802915    0.929909    0.028463
      7          1           0       -1.679136   -1.216923    0.009255
      8          1           0        0.794762   -1.221348    0.002758
      9          1           0        0.795784    3.079952    0.004346
     10          1           0       -1.677974    3.076817    0.004663
     11          6           0        2.490303    0.928775   -0.010068
     12          1           0        2.852098    0.928875   -1.040456
     13          1           0        2.880879    1.814928    0.489553
     14          1           0        2.880390    0.042204    0.489215
     15          7           0       -3.256124    0.929031   -0.009091
     16          8           0       -3.820413   -0.163709    0.055647
     17          8           0       -3.819110    2.022058   -0.078910
 ---------------------------------------------------------------------
                    Distance matrix (angstroms):
                    1          2          3          4          5
     1  C    0.000000
     2  C    1.387797   0.000000
     3  C    2.425188   1.400946   0.000000
     4  C    2.792857   2.414989   1.401073   0.000000
     5  C    2.432477   2.792949   2.425286   1.387742   0.000000
     6  C    1.392129   2.392226   2.775552   2.392188   1.392239
     7  H    1.082520   2.156108   3.411364   3.875261   3.408248
     8  H    2.136177   1.083442   2.157903   3.400226   3.876372
     9  H    3.876298   3.400201   2.157998   1.083455   2.136139
    10  H    3.408273   3.875311   3.411390   2.155971   1.082481
    11  C    3.815035   2.534344   1.517850   2.534525   3.815139
    12  H    4.291020   3.044082   2.152342   3.044140   4.290406
    13  H    4.549374   3.386956   2.158181   2.681744   4.048280
    14  H    4.047818   2.681522   2.158204   3.387191   4.549815
    15  N    2.452669   3.719321   4.228724   3.720067   2.453897
    16  O    2.697597   4.084113   4.916232   4.686576   3.549668
    17  O    3.548368   4.685320   4.915493   4.084002   2.698092
                    6          7          8          9         10
     6  C    0.000000
     7  H    2.150483   0.000000
     8  H    3.372905   2.473911   0.000000
     9  H    3.372908   4.958668   4.301300   0.000000
    10  H    2.150673   4.293743   4.958694   2.473760   0.000000
    11  C    4.293391   4.689202   2.738256   2.738460   4.689225
    12  H    4.776163   5.122345   3.153471   3.153913   5.121277
    13  H    4.788923   5.496957   3.715887   2.486630   4.755063
    14  H    4.788910   4.754476   2.486573   3.715992   5.497486
    15  N    1.453694   2.663146   4.586278   4.587439   2.665283
    16  O    2.295002   2.386730   4.735107   5.642095   3.885055
    17  O    2.295509   3.883074   5.640405   4.735327   2.388298
                   11         12         13         14         15
    11  C    0.000000
    12  H    1.092060   0.000000
    13  H    1.089696   1.768289   0.000000
    14  H    1.089707   1.768299   1.772724   0.000000
    15  N    5.746427   6.194682   6.220631   6.220255   0.000000
    16  O    6.404917   6.849640   7.000756   6.717972   1.231541
    17  O    6.403804   6.828224   6.727251   7.008987   1.231478
                   16         17
    16  O    0.000000
    17  O    2.189905   0.000000
 Stoichiometry    C7H7NO2
 Framework group  C1[X(C7H7NO2)]
 Deg. of freedom    45
 Full point group                 C1      NOp   1
 Largest Abelian subgroup         C1      NOp   1
 Largest concise Abelian subgroup C1      NOp   1
                         Standard orientation:                         
 ---------------------------------------------------------------------
 Center     Atomic      Atomic             Coordinates (Angstroms)
 Number     Number       Type             X           Y           Z
 ---------------------------------------------------------------------
      1          6           0       -0.050069    1.215813    0.008039
      2          6           0        1.337688    1.207386    0.014451
      3          6           0        2.048478    0.000297   -0.004594
      4          6           0        1.338305   -1.207272   -0.025501
      5          6           0       -0.049402   -1.216373   -0.029557
      6          6           0       -0.726980   -0.000144   -0.027514
      7          1           0       -0.603313    2.146083    0.027207
      8          1           0        1.870577    2.150467    0.036243
      9          1           0        1.871788   -2.150222   -0.036255
     10          1           0       -0.601969   -2.147150   -0.038987
     11          6           0        3.566198    0.000471    0.015310
     12          1           0        3.926966   -0.016606    1.045917
     13          1           0        3.957310   -0.877313   -0.498462
     14          1           0        3.956744    0.895164   -0.468900
     15          7           0       -2.180225    0.000075    0.008601
     16          8           0       -2.744497    1.093718   -0.038676
     17          8           0       -2.743233   -1.093970    0.059829
 ---------------------------------------------------------------------
 Rotational constants (GHZ):           3.8685028           0.8219568           0.6810128
 Standard basis: 6-311G(d) (5D, 7F)
 There are   211 symmetry adapted cartesian basis functions of A   symmetry.
 There are   201 symmetry adapted basis functions of A   symmetry.
   201 basis functions,   355 primitive gaussians,   211 cartesian basis functions
    36 alpha electrons       36 beta electrons
       nuclear repulsion energy       493.0254405047 Hartrees.
 NAtoms=   17 NActive=   17 NUniq=   17 SFac= 1.00D+00 NAtFMM=   60 NAOKFM=F Big=F
 Integral buffers will be    131072 words long.
 Raffenetti 2 integral format.
 Two-electron integral symmetry is turned on.
 ------------------------------------------------------------------------------
 Polarizable Continuum Model (PCM)
 =================================
 Model                : PCM.
 Atomic radii         : UFF (Universal Force Field).
 Polarization charges : Total charges.
 Charge compensation  : None.
 Solution method      : On-the-fly selection.
 Cavity type          : Scaled VdW (van der Waals Surface) (Alpha=1.100).
 Cavity algorithm     : GePol (No added spheres)
                        Default sphere list used, NSphG=   17.
                        Lebedev-Laikov grids with approx.  5.0 points / Ang**2.
                        Smoothing algorithm: York/Karplus (Gamma=1.0000).
                        Polarization charges: spherical gaussians, with
                                              point-specific exponents (IZeta= 3).
                        Self-potential: point-specific (ISelfS= 7).
                        Self-field    : sphere-specific E.n sum rule (ISelfD= 2).
 1st derivatives      : Analytical E(r).r(x)/FMM algorithm (CHGder, D1EAlg=3).
                        Cavity 1st derivative terms included.
 Solvent              : Dichloromethane, Eps=   8.930000 Eps(inf)=   2.028346
 ------------------------------------------------------------------------------
 Spheres list:
 ISph  on   Nord     Re0    Alpha      Xe            Ye            Ze
    1   C      1    1.9255  1.100     -0.050069      1.215813      0.008039
    2   C      2    1.9255  1.100      1.337688      1.207386      0.014451
    3   C      3    1.9255  1.100      2.048478      0.000297     -0.004594
    4   C      4    1.9255  1.100      1.338305     -1.207272     -0.025501
    5   C      5    1.9255  1.100     -0.049402     -1.216373     -0.029557
    6   C      6    1.9255  1.100     -0.726980     -0.000144     -0.027514
    7   H      7    1.4430  1.100     -0.603313      2.146083      0.027207
    8   H      8    1.4430  1.100      1.870577      2.150467      0.036243
    9   H      9    1.4430  1.100      1.871788     -2.150222     -0.036255
   10   H     10    1.4430  1.100     -0.601969     -2.147150     -0.038987
   11   C     11    1.9255  1.100      3.566198      0.000471      0.015310
   12   H     12    1.4430  1.100      3.926966     -0.016606      1.045917
   13   H     13    1.4430  1.100      3.957310     -0.877313     -0.498462
   14   H     14    1.4430  1.100      3.956744      0.895164     -0.468900
   15   N     15    1.8300  1.100     -2.180225      0.000075      0.008601
   16   O     16    1.7500  1.100     -2.744497      1.093718     -0.038676
   17   O     17    1.7500  1.100     -2.743233     -1.093970      0.059829
 ------------------------------------------------------------------------------
 One-electron integrals computed using PRISM.
 NBasis=   201 RedAO= T EigKep=  1.85D-04  NBF=   201
 NBsUse=   201 1.00D-06 EigRej= -1.00D+00 NBFU=   201
 Initial guess from the checkpoint file:  "/home/kimariyb/g16/scratch/Gau-8116.chk"
 B after Tr=    -0.000000   -0.000000   -0.000000
         Rot=    1.000000   -0.000184   -0.000015    0.000158 Ang=  -0.03 deg.
 ExpMin= 1.03D-01 ExpMax= 8.59D+03 ExpMxC= 1.30D+03 IAcc=2 IRadAn=         4 AccDes= 0.00D+00
 Harris functional with IExCor=  402 and IRadAn=       4 diagonalized for initial guess.
 HarFok:  IExCor=  402 AccDes= 0.00D+00 IRadAn=         4 IDoV= 1 UseB2=F ITyADJ=14
 ICtDFT=  3500011 ScaDFX=  1.000000  1.000000  1.000000  1.000000
 FoFCou: FMM=F IPFlag=           0 FMFlag=      100000 FMFlg1=           0
         NFxFlg=           0 DoJE=T BraDBF=F KetDBF=T FulRan=T
         wScrn=  0.000000 ICntrl=       500 IOpCl=  0 I1Cent=   200000004 NGrid=           0
         NMat0=    1 NMatS0=      1 NMatT0=    0 NMatD0=    1 NMtDS0=    0 NMtDT0=    0
 Petite list used in FoFCou.
 Requested convergence on RMS density matrix=1.00D-08 within 128 cycles.
 Requested convergence on MAX density matrix=1.00D-06.
 Requested convergence on             energy=1.00D-06.
 No special actions if energy rises.
 Inv3:  Mode=1 IEnd=     6750000.
 Iteration    1 A*A^-1 deviation from unit magnitude is 3.77D-15 for    562.
 Iteration    1 A*A^-1 deviation from orthogonality  is 1.96D-15 for    883    723.
 Iteration    1 A^-1*A deviation from unit magnitude is 3.44D-15 for   1108.
 Iteration    1 A^-1*A deviation from orthogonality  is 2.63D-15 for   1157    210.
 Error on total polarization charges =  0.00856
 SCF Done:  E(RB3LYP) =  -476.188007408     A.U. after   12 cycles
            NFock= 12  Conv=0.40D-08     -V/T= 2.0034
 D1PCM: PCM CHGder 1st derivatives, ID1Alg=3 FixD1E=F DoIter=F DoCFld=F I1PDM=0.
 Calling FoFJK, ICntrl=      2127 FMM=F ISym2X=0 I1Cent= 0 IOpClX= 0 NMat=1 NMatS=1 NMatT=0.
 ***** Axes restored to original set *****
 -------------------------------------------------------------------
 Center     Atomic                   Forces (Hartrees/Bohr)
 Number     Number              X              Y              Z
 -------------------------------------------------------------------
      1        6           0.001307816   -0.001705212    0.001074055
      2        6          -0.001746879    0.001950727    0.000094979
      3        6           0.008486906    0.000022664    0.000348000
      4        6          -0.001704687   -0.001984574    0.000039001
      5        6           0.001186785    0.001642289    0.000859884
      6        6           0.004899044   -0.000032639   -0.004949406
      7        1           0.000095154    0.001131631    0.000066363
      8        1           0.000928584   -0.000450187    0.000099291
      9        1           0.000922027    0.000450010    0.000156582
     10        1           0.000070854   -0.001108631    0.000063748
     11        6          -0.009894991    0.000000339    0.001338372
     12        1           0.001897118    0.000002323   -0.000989665
     13        1           0.001841445    0.000546103   -0.000237730
     14        1           0.001838726   -0.000544863   -0.000237943
     15        7          -0.000047624    0.000221549    0.004823804
     16        8          -0.005086229    0.009211913   -0.001931481
     17        8          -0.004994050   -0.009353444   -0.000617851
 -------------------------------------------------------------------
 Cartesian Forces:  Max     0.009894991 RMS     0.003168504

 GradGradGradGradGradGradGradGradGradGradGradGradGradGradGradGradGradGrad
 Berny optimization.
 Using GEDIIS/GDIIS optimizer.
 FormGI is forming the generalized inverse of G from B-inverse, IUseBI=4.
 Internal  Forces:  Max     0.013594741 RMS     0.002631098
 Search for a local minimum.
 Step number   2 out of a maximum of   88
 All quantities printed in internal units (Hartrees-Bohrs-Radians)
 Mixed Optimization -- RFO/linear search
 Update second derivatives using D2CorX and points    1    2
 DE= -4.76D-03 DEPred=-5.90D-03 R= 8.07D-01
 TightC=F SS=  1.41D+00  RLast= 2.56D-01 DXNew= 5.0454D-01 7.6771D-01
 Trust test= 8.07D-01 RLast= 2.56D-01 DXMaxT set to 5.05D-01
 ITU=  1  0
 Use linear search instead of GDIIS.
     Eigenvalues ---    0.00237   0.00764   0.00776   0.01334   0.01661
     Eigenvalues ---    0.02052   0.02059   0.02061   0.02071   0.02080
     Eigenvalues ---    0.02082   0.02087   0.06976   0.07099   0.15359
     Eigenvalues ---    0.16000   0.16000   0.16000   0.16000   0.16000
     Eigenvalues ---    0.16027   0.21998   0.22120   0.24051   0.24962
     Eigenvalues ---    0.24998   0.25000   0.27444   0.30849   0.34582
     Eigenvalues ---    0.37166   0.37230   0.37230   0.37230   0.37230
     Eigenvalues ---    0.37230   0.40420   0.41270   0.42911   0.45172
     Eigenvalues ---    0.45397   0.45609   0.47739   0.86696   0.87992
 RFO step:  Lambda=-1.86537081D-03 EMin= 2.36824139D-03
 Quartic linear search produced a step of -0.12518.
 Iteration  1 RMS(Cart)=  0.02474353 RMS(Int)=  0.00203290
 Iteration  2 RMS(Cart)=  0.00159639 RMS(Int)=  0.00145060
 Iteration  3 RMS(Cart)=  0.00000226 RMS(Int)=  0.00145060
 Iteration  4 RMS(Cart)=  0.00000000 RMS(Int)=  0.00145060
 Variable       Old X    -DE/DX   Delta X   Delta X   Delta X     New X
                                 (Linear)    (Quad)   (Total)
    R1        2.62256   0.00128   0.00322  -0.00474  -0.00152   2.62104
    R2        2.63074   0.00149   0.00258  -0.00278  -0.00016   2.63058
    R3        2.04567  -0.00102  -0.00296   0.00425   0.00129   2.04695
    R4        2.64740   0.00007  -0.00028   0.00064   0.00032   2.64772
    R5        2.04741   0.00085  -0.00318   0.00909   0.00591   2.05332
    R6        2.64765   0.00003  -0.00031   0.00064   0.00028   2.64793
    R7        2.86832  -0.00432   0.00524  -0.02486  -0.01962   2.84870
    R8        2.62245   0.00129   0.00323  -0.00475  -0.00152   2.62094
    R9        2.04743   0.00084  -0.00318   0.00909   0.00590   2.05334
   R10        2.63095   0.00139   0.00255  -0.00293  -0.00033   2.63062
   R11        2.04559  -0.00099  -0.00295   0.00430   0.00135   2.04694
   R12        2.74708   0.01007   0.00386   0.01577   0.01963   2.76671
   R13        2.06369   0.00156  -0.00522   0.01531   0.01009   2.07379
   R14        2.05923   0.00100  -0.00466   0.01274   0.00808   2.06731
   R15        2.05925   0.00099  -0.00466   0.01274   0.00808   2.06732
   R16        2.32728  -0.00594   0.00143  -0.00906  -0.00762   2.31965
   R17        2.32716  -0.00598   0.00145  -0.00913  -0.00768   2.31947
    A1        2.07264   0.00089   0.00345  -0.00448  -0.00094   2.07170
    A2        2.11320   0.00006  -0.00271   0.00722   0.00446   2.11765
    A3        2.09735  -0.00095  -0.00073  -0.00274  -0.00352   2.09382
    A4        2.10891   0.00154  -0.00175   0.00933   0.00758   2.11650
    A5        2.07904  -0.00017   0.00189  -0.00374  -0.00185   2.07719
    A6        2.09524  -0.00137  -0.00014  -0.00560  -0.00574   2.08950
    A7        2.07791  -0.00227   0.00179  -0.01271  -0.01097   2.06694
    A8        2.10255   0.00114  -0.00088   0.00632   0.00545   2.10800
    A9        2.10265   0.00113  -0.00090   0.00629   0.00541   2.10805
   A10        2.10896   0.00155  -0.00176   0.00937   0.00762   2.11658
   A11        2.09518  -0.00137  -0.00013  -0.00558  -0.00572   2.08947
   A12        2.07904  -0.00018   0.00189  -0.00379  -0.00190   2.07714
   A13        2.07252   0.00090   0.00346  -0.00447  -0.00091   2.07161
   A14        2.11311   0.00007  -0.00270   0.00722   0.00447   2.11757
   A15        2.09755  -0.00097  -0.00076  -0.00276  -0.00357   2.09398
   A16        2.12518  -0.00260  -0.00538   0.00363  -0.00215   2.12303
   A17        2.07753   0.00147   0.00228   0.00045   0.00211   2.07964
   A18        2.07910   0.00118   0.00208  -0.00014   0.00133   2.08043
   A19        1.92059   0.00123  -0.00125   0.00812   0.00685   1.92744
   A20        1.93116   0.00170  -0.00257   0.01557   0.01294   1.94410
   A21        1.93118   0.00170  -0.00257   0.01559   0.01295   1.94413
   A22        1.88997  -0.00173   0.00259  -0.01649  -0.01392   1.87605
   A23        1.88997  -0.00173   0.00259  -0.01645  -0.01388   1.87609
   A24        1.89994  -0.00134   0.00134  -0.00786  -0.00661   1.89333
   A25        2.04567   0.00694   0.00610   0.01177   0.01059   2.05626
   A26        2.04647   0.00671   0.00600   0.01119   0.00991   2.05638
   A27        2.19081  -0.01359  -0.01207  -0.01838  -0.03788   2.15293
    D1       -0.00801   0.00012  -0.00217   0.01270   0.01056   0.00256
    D2        3.13545   0.00009  -0.00225   0.01108   0.00884  -3.13890
    D3        3.13672   0.00016  -0.00241   0.01434   0.01196  -3.13451
    D4       -0.00301   0.00014  -0.00249   0.01271   0.01024   0.00723
    D5        0.02284  -0.00041   0.00499  -0.03269  -0.02760  -0.00476
    D6        3.10772   0.00071  -0.00635   0.04880   0.04237  -3.13309
    D7       -3.12186  -0.00046   0.00522  -0.03429  -0.02896   3.13236
    D8       -0.03698   0.00066  -0.00612   0.04720   0.04101   0.00403
    D9       -0.00398   0.00013  -0.00108   0.00756   0.00650   0.00252
   D10       -3.13187   0.00022  -0.00251   0.01627   0.01374  -3.11813
   D11        3.13574   0.00016  -0.00100   0.00921   0.00824  -3.13921
   D12        0.00784   0.00025  -0.00243   0.01791   0.01548   0.02332
   D13        0.00176  -0.00014   0.00136  -0.00875  -0.00741  -0.00565
   D14       -3.13717  -0.00018   0.00118  -0.01068  -0.00953   3.13649
   D15        3.12965  -0.00023   0.00279  -0.01745  -0.01465   3.11500
   D16       -0.00927  -0.00028   0.00261  -0.01939  -0.01677  -0.02604
   D17        1.56399  -0.00006   0.00071  -0.00412  -0.00342   1.56057
   D18       -2.63126  -0.00034   0.00152  -0.00953  -0.00805  -2.63930
   D19       -0.52396   0.00022  -0.00010   0.00123   0.00115  -0.52280
   D20       -1.56371   0.00006  -0.00075   0.00486   0.00412  -1.55959
   D21        0.52423  -0.00022   0.00006  -0.00055  -0.00051   0.52372
   D22        2.63153   0.00034  -0.00155   0.01021   0.00869   2.64022
   D23        0.01236  -0.00009   0.00163  -0.01039  -0.00878   0.00357
   D24       -3.13437  -0.00016   0.00211  -0.01348  -0.01138   3.13743
   D25       -3.13188  -0.00005   0.00181  -0.00848  -0.00669  -3.13856
   D26        0.00458  -0.00012   0.00229  -0.01157  -0.00929  -0.00470
   D27       -0.02499   0.00040  -0.00472   0.03156   0.02673   0.00174
   D28       -3.10983  -0.00073   0.00662  -0.05002  -0.04329   3.13007
   D29        3.12168   0.00047  -0.00520   0.03459   0.02927  -3.13223
   D30        0.03685  -0.00066   0.00614  -0.04699  -0.04075  -0.00390
   D31        0.09901  -0.00179   0.00619  -0.16044  -0.15376  -0.05476
   D32       -3.06455   0.00066   0.00894   0.05379   0.06188  -3.00267
   D33       -3.09777  -0.00083  -0.00549  -0.08101  -0.08564   3.09977
   D34        0.02185   0.00162  -0.00274   0.13323   0.13000   0.15185
         Item               Value     Threshold  Converged?
 Maximum Force            0.013595     0.000450     NO 
 RMS     Force            0.002631     0.000300     NO 
 Maximum Displacement     0.119747     0.001800     NO 
 RMS     Displacement     0.024249     0.001200     NO 
 Predicted change in Energy=-1.084017D-03
 GradGradGradGradGradGradGradGradGradGradGradGradGradGradGradGradGradGrad

                          Input orientation:                          
 ---------------------------------------------------------------------
 Center     Atomic      Atomic             Coordinates (Angstroms)
 Number     Number       Type             X           Y           Z
 ---------------------------------------------------------------------
      1          6           0       -1.124030   -0.284768    0.024561
      2          6           0        0.262914   -0.273930    0.020352
      3          6           0        0.980724    0.929337    0.015642
      4          6           0        0.264202    2.133503    0.018371
      5          6           0       -1.122681    2.146017    0.018849
      6          6           0       -1.802050    0.930988    0.020919
      7          1           0       -1.680024   -1.214333    0.034761
      8          1           0        0.797341   -1.219984    0.020605
      9          1           0        0.799726    3.078949    0.019636
     10          1           0       -1.677498    3.076314    0.024806
     11          6           0        2.487787    0.928426   -0.019287
     12          1           0        2.846994    0.927868   -1.056234
     13          1           0        2.898747    1.816094    0.470543
     14          1           0        2.897727    0.040634    0.471189
     15          7           0       -3.266051    0.931253    0.036174
     16          8           0       -3.839508   -0.153179   -0.007720
     17          8           0       -3.840359    2.005057   -0.117631
 ---------------------------------------------------------------------
                    Distance matrix (angstroms):
                    1          2          3          4          5
     1  C    0.000000
     2  C    1.386993   0.000000
     3  C    2.429840   1.401115   0.000000
     4  C    2.788416   2.407434   1.401223   0.000000
     5  C    2.430793   2.788552   2.429945   1.386940   0.000000
     6  C    1.392045   2.390796   2.782779   2.390700   1.392064
     7  H    1.083200   2.158604   3.416908   3.871471   3.406294
     8  H    2.136893   1.086568   2.157135   3.395602   3.875107
     9  H    3.874978   3.395580   2.157222   1.086580   2.136823
    10  H    3.406347   3.871608   3.416978   2.158503   1.083194
    11  C    3.810379   2.529287   1.507468   2.529418   3.810441
    12  H    4.290413   3.046445   2.152182   3.046169   4.289290
    13  H    4.560182   3.393890   2.161501   2.691846   4.060143
    14  H    4.059544   2.691550   2.161531   3.394201   4.560804
    15  N    2.463147   3.729116   4.246824   3.729398   2.463734
    16  O    2.718856   4.104295   4.940346   4.697875   3.559236
    17  O    3.555554   4.695708   4.941435   4.108822   2.724751
                    6          7          8          9         10
     6  C    0.000000
     7  H    2.148833   0.000000
     8  H    3.373946   2.477411   0.000000
     9  H    3.373867   4.957989   4.298933   0.000000
    10  H    2.148941   4.290659   4.958127   2.477232   0.000000
    11  C    4.290026   4.686682   2.734020   2.734193   4.686680
    12  H    4.772199   5.125738   3.158153   3.158473   5.124012
    13  H    4.804484   5.508043   3.719694   2.490785   4.767479
    14  H    4.804516   4.766677   2.490744   3.719794   5.508838
    15  N    1.464080   2.668150   4.597740   4.598197   2.669253
    16  O    2.308132   2.406496   4.758071   5.654192   3.886511
    17  O    2.308143   3.880045   5.650510   4.764712   2.417818
                   11         12         13         14         15
    11  C    0.000000
    12  H    1.097402   0.000000
    13  H    1.093972   1.767108   0.000000
    14  H    1.093980   1.767139   1.775461   0.000000
    15  N    5.754106   6.209886   6.243104   6.242964   0.000000
    16  O    6.419086   6.854003   7.036395   6.757015   1.227507
    17  O    6.419832   6.838275   6.767364   7.043257   1.227413
                   16         17
    16  O    0.000000
    17  O    2.161034   0.000000
 Stoichiometry    C7H7NO2
 Framework group  C1[X(C7H7NO2)]
 Deg. of freedom    45
 Full point group                 C1      NOp   1
 Largest Abelian subgroup         C1      NOp   1
 Largest concise Abelian subgroup C1      NOp   1
                         Standard orientation:                         
 ---------------------------------------------------------------------
 Center     Atomic      Atomic             Coordinates (Angstroms)
 Number     Number       Type             X           Y           Z
 ---------------------------------------------------------------------
      1          6           0       -0.044677    1.214136   -0.009892
      2          6           0        1.342228    1.203675    0.001798
      3          6           0        2.060473    0.000689   -0.006631
      4          6           0        1.344451   -1.203543   -0.030407
      5          6           0       -0.042404   -1.216485   -0.038699
      6          6           0       -0.722229   -0.001763   -0.027250
      7          1           0       -0.600971    2.143577   -0.009949
      8          1           0        1.876276    2.149805    0.017924
      9          1           0        1.880345   -2.148706   -0.042153
     10          1           0       -0.596815   -2.146778   -0.060922
     11          6           0        3.567321    0.001577    0.036603
     12          1           0        3.920819   -0.012482    1.075415
     13          1           0        3.981318   -0.878914   -0.463515
     14          1           0        3.979604    0.896376   -0.438949
     15          7           0       -2.186123   -0.002272   -0.050568
     16          8           0       -2.760239    1.081247    0.005567
     17          8           0       -2.760847   -1.078333    0.084807
 ---------------------------------------------------------------------
 Rotational constants (GHZ):           3.9032029           0.8157413           0.6779652
 Standard basis: 6-311G(d) (5D, 7F)
 There are   211 symmetry adapted cartesian basis functions of A   symmetry.
 There are   201 symmetry adapted basis functions of A   symmetry.
   201 basis functions,   355 primitive gaussians,   211 cartesian basis functions
    36 alpha electrons       36 beta electrons
       nuclear repulsion energy       492.6609238411 Hartrees.
 NAtoms=   17 NActive=   17 NUniq=   17 SFac= 1.00D+00 NAtFMM=   60 NAOKFM=F Big=F
 Integral buffers will be    131072 words long.
 Raffenetti 2 integral format.
 Two-electron integral symmetry is turned on.
 ------------------------------------------------------------------------------
 Polarizable Continuum Model (PCM)
 =================================
 Model                : PCM.
 Atomic radii         : UFF (Universal Force Field).
 Polarization charges : Total charges.
 Charge compensation  : None.
 Solution method      : On-the-fly selection.
 Cavity type          : Scaled VdW (van der Waals Surface) (Alpha=1.100).
 Cavity algorithm     : GePol (No added spheres)
                        Default sphere list used, NSphG=   17.
                        Lebedev-Laikov grids with approx.  5.0 points / Ang**2.
                        Smoothing algorithm: York/Karplus (Gamma=1.0000).
                        Polarization charges: spherical gaussians, with
                                              point-specific exponents (IZeta= 3).
                        Self-potential: point-specific (ISelfS= 7).
                        Self-field    : sphere-specific E.n sum rule (ISelfD= 2).
 1st derivatives      : Analytical E(r).r(x)/FMM algorithm (CHGder, D1EAlg=3).
                        Cavity 1st derivative terms included.
 Solvent              : Dichloromethane, Eps=   8.930000 Eps(inf)=   2.028346
 ------------------------------------------------------------------------------
 Spheres list:
 ISph  on   Nord     Re0    Alpha      Xe            Ye            Ze
    1   C      1    1.9255  1.100     -0.044677      1.214136     -0.009892
    2   C      2    1.9255  1.100      1.342228      1.203675      0.001798
    3   C      3    1.9255  1.100      2.060473      0.000689     -0.006631
    4   C      4    1.9255  1.100      1.344451     -1.203543     -0.030407
    5   C      5    1.9255  1.100     -0.042404     -1.216485     -0.038699
    6   C      6    1.9255  1.100     -0.722229     -0.001763     -0.027250
    7   H      7    1.4430  1.100     -0.600971      2.143577     -0.009949
    8   H      8    1.4430  1.100      1.876276      2.149805      0.017924
    9   H      9    1.4430  1.100      1.880345     -2.148706     -0.042153
   10   H     10    1.4430  1.100     -0.596815     -2.146778     -0.060922
   11   C     11    1.9255  1.100      3.567321      0.001577      0.036603
   12   H     12    1.4430  1.100      3.920819     -0.012482      1.075415
   13   H     13    1.4430  1.100      3.981318     -0.878914     -0.463515
   14   H     14    1.4430  1.100      3.979604      0.896376     -0.438949
   15   N     15    1.8300  1.100     -2.186123     -0.002272     -0.050568
   16   O     16    1.7500  1.100     -2.760239      1.081247      0.005567
   17   O     17    1.7500  1.100     -2.760847     -1.078333      0.084807
 ------------------------------------------------------------------------------
 One-electron integrals computed using PRISM.
 NBasis=   201 RedAO= T EigKep=  1.82D-04  NBF=   201
 NBsUse=   201 1.00D-06 EigRej= -1.00D+00 NBFU=   201
 Initial guess from the checkpoint file:  "/home/kimariyb/g16/scratch/Gau-8116.chk"
 B after Tr=     0.000000   -0.000000    0.000000
         Rot=    1.000000    0.000200    0.000117   -0.000049 Ang=   0.03 deg.
 ExpMin= 1.03D-01 ExpMax= 8.59D+03 ExpMxC= 1.30D+03 IAcc=2 IRadAn=         4 AccDes= 0.00D+00
 Harris functional with IExCor=  402 and IRadAn=       4 diagonalized for initial guess.
 HarFok:  IExCor=  402 AccDes= 0.00D+00 IRadAn=         4 IDoV= 1 UseB2=F ITyADJ=14
 ICtDFT=  3500011 ScaDFX=  1.000000  1.000000  1.000000  1.000000
 FoFCou: FMM=F IPFlag=           0 FMFlag=      100000 FMFlg1=           0
         NFxFlg=           0 DoJE=T BraDBF=F KetDBF=T FulRan=T
         wScrn=  0.000000 ICntrl=       500 IOpCl=  0 I1Cent=   200000004 NGrid=           0
         NMat0=    1 NMatS0=      1 NMatT0=    0 NMatD0=    1 NMtDS0=    0 NMtDT0=    0
 Petite list used in FoFCou.
 Requested convergence on RMS density matrix=1.00D-08 within 128 cycles.
 Requested convergence on MAX density matrix=1.00D-06.
 Requested convergence on             energy=1.00D-06.
 No special actions if energy rises.
 Inv3:  Mode=1 IEnd=     6741003.
 Iteration    1 A*A^-1 deviation from unit magnitude is 2.89D-15 for    546.
 Iteration    1 A*A^-1 deviation from orthogonality  is 1.82D-15 for   1076    323.
 Iteration    1 A^-1*A deviation from unit magnitude is 2.78D-15 for    593.
 Iteration    1 A^-1*A deviation from orthogonality  is 3.10D-15 for   1159    191.
 Error on total polarization charges =  0.00854
 SCF Done:  E(RB3LYP) =  -476.186665933     A.U. after   12 cycles
            NFock= 12  Conv=0.29D-08     -V/T= 2.0034
 D1PCM: PCM CHGder 1st derivatives, ID1Alg=3 FixD1E=F DoIter=F DoCFld=F I1PDM=0.
 Calling FoFJK, ICntrl=      2127 FMM=F ISym2X=0 I1Cent= 0 IOpClX= 0 NMat=1 NMatS=1 NMatT=0.
 ***** Axes restored to original set *****
 -------------------------------------------------------------------
 Center     Atomic                   Forces (Hartrees/Bohr)
 Number     Number              X              Y              Z
 -------------------------------------------------------------------
      1        6          -0.001220189   -0.001195342    0.001264827
      2        6           0.001352961   -0.001731443   -0.000637630
      3        6           0.001431975    0.000031924   -0.000127044
      4        6           0.001411786    0.001791964   -0.000699301
      5        6          -0.001292524    0.001101102    0.001229061
      6        6           0.001819961    0.000354432    0.007649981
      7        1           0.000649820    0.001150787   -0.000011587
      8        1          -0.000307055    0.001057924    0.000044198
      9        1          -0.000301540   -0.001061737    0.000010548
     10        1           0.000594951   -0.001093291   -0.000033983
     11        6          -0.000064340   -0.000001939    0.000509608
     12        1          -0.000129180    0.000002292    0.001461305
     13        1          -0.000211382   -0.001306947   -0.000883310
     14        1          -0.000211298    0.001309176   -0.000881743
     15        7          -0.000639780   -0.001798592   -0.030132836
     16        8          -0.001485894   -0.001180666    0.010632766
     17        8          -0.001398272    0.002570355    0.010605141
 -------------------------------------------------------------------
 Cartesian Forces:  Max     0.030132836 RMS     0.004943611

 GradGradGradGradGradGradGradGradGradGradGradGradGradGradGradGradGradGrad
 Berny optimization.
 Using GEDIIS/GDIIS optimizer.
 FormGI is forming the generalized inverse of G from B-inverse, IUseBI=4.
 Internal  Forces:  Max     0.011173610 RMS     0.002621258
 Search for a local minimum.
 Step number   3 out of a maximum of   88
 All quantities printed in internal units (Hartrees-Bohrs-Radians)
 Mixed Optimization -- RFO/linear search
 Update second derivatives using D2CorX and points    1    3    2
 DE=  1.34D-03 DEPred=-1.08D-03 R=-1.24D+00
 Trust test=-1.24D+00 RLast= 2.61D-01 DXMaxT set to 2.52D-01
 ITU= -1  1  0
 Use linear search instead of GDIIS.
     Eigenvalues ---    0.00237   0.00759   0.01201   0.01328   0.02048
     Eigenvalues ---    0.02058   0.02059   0.02071   0.02080   0.02081
     Eigenvalues ---    0.02082   0.06560   0.07006   0.07459   0.14163
     Eigenvalues ---    0.16000   0.16000   0.16000   0.16000   0.16000
     Eigenvalues ---    0.16012   0.20888   0.22001   0.23922   0.24718
     Eigenvalues ---    0.24994   0.24999   0.25052   0.28324   0.33841
     Eigenvalues ---    0.36927   0.37230   0.37230   0.37230   0.37230
     Eigenvalues ---    0.37231   0.37274   0.41245   0.41666   0.45173
     Eigenvalues ---    0.45385   0.45431   0.45608   0.84998   0.87992
 RFO step:  Lambda=-3.64119806D-03 EMin= 2.36823583D-03
 Quartic linear search produced a step of -0.69983.
 Iteration  1 RMS(Cart)=  0.05119012 RMS(Int)=  0.00508875
 Iteration  2 RMS(Cart)=  0.00509128 RMS(Int)=  0.00177649
 Iteration  3 RMS(Cart)=  0.00004003 RMS(Int)=  0.00177616
 Iteration  4 RMS(Cart)=  0.00000017 RMS(Int)=  0.00177616
 Variable       Old X    -DE/DX   Delta X   Delta X   Delta X     New X
                                 (Linear)    (Quad)   (Total)
    R1        2.62104   0.00149   0.00106   0.00099   0.00205   2.62309
    R2        2.63058   0.00071   0.00011   0.00316   0.00332   2.63390
    R3        2.04695  -0.00132  -0.00090  -0.00135  -0.00225   2.04471
    R4        2.64772   0.00059  -0.00022   0.00082   0.00054   2.64827
    R5        2.05332  -0.00107  -0.00413   0.01010   0.00597   2.05929
    R6        2.64793   0.00051  -0.00020   0.00064   0.00039   2.64832
    R7        2.84870  -0.00062   0.01373  -0.04324  -0.02951   2.81919
    R8        2.62094   0.00147   0.00106   0.00100   0.00206   2.62300
    R9        2.05334  -0.00107  -0.00413   0.01009   0.00596   2.05930
   R10        2.63062   0.00069   0.00023   0.00269   0.00297   2.63359
   R11        2.04694  -0.00124  -0.00094  -0.00112  -0.00206   2.04488
   R12        2.76671   0.00343  -0.01374   0.05625   0.04251   2.80922
[...]
   xx         0.494609D+02      0.732936D+01      0.815501D+01
   yx         0.430227D+00      0.637530D-01      0.709348D-01
   yy         0.126963D+03      0.188139D+02      0.209333D+02
   zx        -0.852102D-03     -0.126269D-03     -0.140493D-03
   zy         0.431863D-02      0.639955D-03      0.712046D-03
   zz         0.168255D+03      0.249329D+02      0.277416D+02

 ----------------------------------------------------------------------
 1\1\GINC-LOCALHOST\Freq\RB3LYP\6-311G(d)\C7H7N1O2\KIMARIYB\18-Jul-2023
 \0\\#N Geom=AllCheck Guess=TCheck SCRF=Check GenChk RB3LYP/6-311G(d) F
 req\\Title Card Required\\0,1\C,-1.1232809203,-0.2860682244,0.01083283
 88\C,0.265175118,-0.2751301784,0.0183180302\C,0.9828329522,0.929174434
 5,0.0136805055\C,0.2655308049,2.1336822197,0.0055660116\C,-1.122911472
 2,2.1449537782,-0.0020750983\C,-1.802378457,0.929518427,0.0001832201\H
 ,-1.6779976275,-1.214354926,0.0163426879\H,0.8006766202,-1.2185695166,
 0.0299294244\H,0.801311541,3.0770350521,0.0072276191\H,-1.6773559637,3
 .0734088743,-0.006448341\C,2.4886484489,0.9288886037,-0.0077728381\H,2
 .8584739101,0.9251244476,-1.0387890757\H,2.8972727394,1.815983259,0.47
 98426658\H,2.8970657823,0.0453003202,0.4863111936\N,-3.2709329384,0.92
 97143834,-0.0044215626\O,-3.8492477542,-0.1525137131,-0.0003081156\O,-
 3.8489186937,2.0120994087,-0.0128849357\\Version=ES64L-G16RevA.03\Stat
 e=1-A\HF=-476.1888471\RMSD=6.890e-09\RMSF=3.019e-05\ZeroPoint=0.130034
 7\Thermal=0.1387943\Dipole=2.5351989,-0.0003186,-0.0121193\DipoleDeriv
 =0.3339256,0.1251411,-0.0044026,-0.2626023,-0.0369861,-0.003987,0.0102
 486,-0.0035245,-0.0899962,-0.4413888,-0.2368264,0.0078206,-0.3633629,0
 .0616082,0.0016901,0.0056276,0.0039675,-0.1584544,0.7766068,-0.0001251
 ,-0.0373403,-0.0003587,0.1013799,-0.0007126,-0.1131485,-0.0007044,-0.0
 319045,-0.4411407,0.2369783,0.0053108,0.3635234,0.061427,-0.0040162,0.
 0017574,-0.0062818,-0.1583657,0.3337976,-0.1252506,-0.0030495,0.262508
 4,-0.0369618,0.0034341,0.0072716,0.002879,-0.0901193,-0.9587878,0.0001
 786,0.0064018,0.0002906,0.075215,-0.0001584,0.0004583,-0.0001529,0.036
 7137,0.1052811,-0.0696756,-0.0000649,-0.0477243,0.0447533,0.0008537,-0
 .0031706,0.0028627,0.1636078,0.0238292,0.1006752,-0.0030731,0.1008888,
 -0.0539497,0.0018181,-0.0074325,0.005236,0.1545132,0.0238088,-0.100694
 1,-0.0020066,-0.1010335,-0.053989,0.0003838,-0.0063449,-0.0030401,0.15
 45508,0.1053125,0.0696617,-0.0007943,0.0476682,0.0446901,0.0003901,-0.
 0035994,-0.0015882,0.1636394,-0.1587361,0.0000341,0.0167933,0.0002875,
 0.1489764,-0.0001341,0.2356188,-0.0001633,0.1225178,-0.0805726,0.00021
 62,0.0458719,0.0004138,0.1163331,-0.0007757,0.0582685,-0.0007919,-0.10
 36383,-0.0211123,-0.0178573,-0.014737,-0.0801412,-0.0792279,-0.0952172
 ,-0.092991,-0.0894318,0.0553039,-0.0209032,0.0176627,-0.0147887,0.0797
 574,-0.0780177,0.0962413,-0.093512,0.0904926,0.0538723,2.8022072,-0.00
 01072,-0.0015128,-0.0000661,1.9363686,-0.0094373,0.0084555,-0.0094111,
 0.3263931,-1.1912109,-0.4551426,0.0024258,-0.4466234,-1.1256904,0.0055
 031,-0.0011454,0.0028582,-0.2993073,-1.1909165,0.4551309,-0.0028544,0.
 4465744,-1.1259291,0.0041241,-0.006362,0.0067939,-0.2993262\Polar=168.
 2526565,-0.0028807,126.9626423,-0.5670748,-0.4204312,49.4635454\Quadru
 pole=-3.7941814,3.7732612,0.0209201,0.0011877,-0.144277,-0.0179067\PG=
 C01 [X(C7H7N1O2)]\NImag=0\\0.69816333,0.04392549,0.72427372,0.00213328
 ,-0.00413374,0.13608713,-0.34418993,-0.03329197,-0.00098120,0.69380333
 ,0.03329663,-0.13060973,0.00063409,-0.04236363,0.70206699,-0.00106703,
 -0.00003101,-0.06115584,0.00259653,-0.00547761,0.13190889,-0.02927306,
 -0.02940331,0.00027803,-0.16915067,-0.10751489,0.00038673,0.63408416,-
 0.07580766,0.03621573,-0.00066102,-0.04264689,-0.26403007,0.00215602,0
 .00001344,0.65209991,0.00054545,0.00019163,0.00562240,-0.00023062,0.00
 052400,-0.06826891,-0.00173709,-0.00249893,0.17977994,-0.04690443,0.03
 033716,-0.00035666,0.06235656,0.01914644,0.00095550,-0.16908669,0.0426
 1282,-0.00068176,0.69385917,0.02454979,-0.01639432,0.00022652,-0.01917
 507,-0.05555124,-0.00014524,0.10746509,-0.26407330,0.00154799,0.042392
 16,0.70207491,-0.00088038,0.00053292,-0.00566732,0.00115957,0.00083599
 ,0.00961620,-0.00075204,-0.00008560,-0.06826783,0.00216281,-0.00054867
 ,0.13186070,0.05601602,-0.02132140,0.00019944,-0.04692364,-0.02454593,
 -0.00061918,-0.02925322,0.07582404,-0.00025844,-0.34421800,-0.03324275
 ,-0.00072267,0.69815408,0.02128889,-0.05547197,0.00047709,-0.03033174,
 -0.01638382,-0.00041829,0.02941914,0.03619006,-0.00051517,0.03334236,-
 0.13060926,0.00076496,-0.04390116,0.72430695,-0.00002500,0.00021905,0.
 01014260,-0.00003415,-0.00011369,-0.00566136,-0.00003306,0.00033509,0.
 00562154,-0.00134727,0.00010306,-0.06115192,0.00261943,-0.00211369,0.1
 3606326,-0.14622252,0.10250722,-0.00082068,-0.03726475,0.02190546,-0.0
 0041613,0.00649394,-0.00001272,-0.00105319,-0.03729366,-0.02188748,-0.
 00018388,-0.14626269,-0.10254670,0.00025749,0.53772775,0.04793281,-0.2
 8991814,0.00177684,0.07343554,0.03164132,0.00083718,-0.00000375,-0.066
 58328,0.00031526,-0.07341552,0.03166093,-0.00109890,-0.04797071,-0.289
 87022,0.00065498,0.00003676,0.75208248,-0.00043340,0.00179355,-0.06093
 421,-0.00078979,-0.00011751,0.00662320,0.00032350,0.00031840,-0.007031
 92,-0.00000804,-0.00015173,0.00663404,0.00006851,0.00064124,-0.0609214
 8,0.00176372,-0.00333714,0.12960829,-0.13051931,-0.12639847,0.00061921
 ,-0.00991804,-0.02684166,0.00017002,-0.00473719,0.00124415,0.00003711,
 -0.00078880,0.00062385,-0.00001930,-0.00169188,0.00325740,-0.00004119,
 0.01294380,0.01254545,-0.00007366,0.13607357,-0.12431715,-0.27455416,0
 .00147076,0.00204211,0.00616653,-0.00000717,0.00125036,0.00133402,0.00
 003453,0.00057575,0.00034594,0.00000085,0.00400196,-0.00283474,0.00006
 285,-0.01471145,-0.01899640,0.00016246,0.13604801,0.28719001,0.0006283
 6,0.00155411,-0.03823295,-0.00007471,-0.00003683,0.00458589,-0.0002177
 3,-0.00006277,0.00776438,-0.00009330,0.00003049,-0.00068291,0.00001776
 ,0.00010716,0.00442021,0.00010417,0.00015475,0.00499015,-0.00065701,-0
 .00162779,0.02587658,-0.01268994,0.02869643,-0.00021653,-0.12609352,0.
 11872301,-0.00180232,0.01053277,-0.01445382,0.00006001,-0.00126449,-0.
 00327998,-0.00000515,-0.00069235,-0.00050155,-0.00000680,-0.00462578,-
 0.00193269,-0.00004878,0.00123234,-0.00026059,0.00004741,0.13261286,-0
 .00217989,0.00445589,-0.00006335,0.11865699,-0.26960931,0.00284987,0.0
 1499025,-0.01941205,0.00033835,-0.00363213,-0.00307147,0.00009163,-0.0
 0095474,-0.00003381,-0.00000849,-0.00042919,0.00160154,0.00007757,0.00
 029501,0.00076939,-0.00006532,-0.12735433,0.28470966,0.00002888,0.0001
 3829,0.00280709,-0.00170892,0.00307515,-0.03663430,-0.00069806,0.00012
 820,0.00368637,0.00007308,-0.00011651,0.00592480,-0.00006578,-0.000027
 81,-0.00050354,-0.00010448,0.00008470,0.00726407,0.00002058,-0.0000417
 1,-0.00443572,0.00192410,-0.00303444,0.02544843,-0.00069197,0.00050175
 ,-0.00001177,-0.00126291,0.00327924,-0.00004033,0.01053954,0.01444697,
 -0.00009244,-0.12616588,-0.11877234,-0.00055113,-0.01269801,-0.0286931
 1,0.00008672,-0.00462505,0.00193385,-0.00007079,0.00004213,-0.00010293
 ,0.00000007,0.00058984,0.00074924,0.00004064,0.13268449,0.00095400,-0.
 00003386,0.00000350,0.00363214,-0.00307178,0.00000343,-0.01500655,-0.0
 1941299,-0.00009443,-0.11870963,-0.26957292,-0.00039181,0.00218521,0.0
 0446220,0.00004597,0.00042944,0.00159959,-0.00001760,-0.00010147,-0.00
 001126,0.00000284,-0.00074902,-0.00101422,0.00002149,0.12741515,0.2846
 6223,-0.00007598,0.00002333,-0.00050390,0.00003490,0.00021212,0.005924
 35,-0.00053958,0.00011680,0.00368777,-0.00045870,-0.00061793,-0.036600
 45,0.00000572,-0.00015621,0.00280913,-0.00010916,-0.00002511,0.0072662
 5,0.00000127,-0.00000818,-0.00087556,0.00004855,-0.00000920,0.00014687
 ,0.00058309,0.00030015,0.02541481,-0.00169413,-0.00325799,-0.00000600,
 -0.00078917,-0.00062364,-0.00001279,-0.00473797,-0.00124222,0.00004955
 ,-0.00991133,0.02684656,-0.00011606,-0.13044545,0.12635554,-0.00072245
 ,0.01294423,-0.01255516,0.00005841,0.00063702,-0.00082578,0.00001072,0
 .00004212,0.00010144,0.00000023,0.00123244,-0.00029481,0.00002424,0.13
 599415,-0.00400182,-0.00283371,0.00001486,-0.00057642,0.00034591,-0.00
 001197,-0.00125077,0.00133554,0.00003405,-0.00203816,0.00615962,-0.000
 00995,0.12427453,-0.27463373,0.00104521,0.01470211,-0.01899769,0.00009
 179,0.00082540,-0.00082928,0.00001695,0.00010291,-0.00001136,-0.000001
 01,0.00026097,0.00077008,-0.00001363,-0.13600294,0.28727538,0.00005960
 ,-0.00003056,0.00442047,-0.00008744,-0.00004185,-0.00068223,-0.0002047
 4,0.00013088,0.00776529,-0.00005238,0.00001982,0.00458483,-0.00069534,
 0.00096131,-0.03822739,-0.00004688,0.00010123,0.00498979,0.00000241,0.
 00000211,0.00098291,-0.00000099,-0.00001197,-0.00087527,0.00004482,0.0
 0001035,-0.00443699,0.00078975,-0.00115482,0.02587180,0.00334621,-0.00
 111327,-0.00037048,-0.02269279,-0.00535384,0.00020598,-0.21106876,0.00
 001441,0.00132953,-0.02270089,0.00537043,0.00014847,0.00336253,0.00111
 499,-0.00038288,-0.00288018,-0.00000767,-0.00013388,-0.00005150,0.0001
 3875,0.00010748,0.00109295,0.00152412,0.00046213,0.00109084,-0.0015157
 5,0.00047870,-0.00005109,-0.00013748,0.00010897,0.48703252,-0.00193978
 ,-0.00462349,0.00121310,-0.02935524,0.00345871,0.00188326,0.00002285,-
 0.09035610,0.00009417,0.02936630,0.00343272,-0.00185972,0.00193380,-0.
 00463832,-0.00109430,0.00000122,-0.00081678,0.00000426,-0.00117906,0.0
 0011744,-0.00015443,-0.00090722,0.00086823,-0.00083925,0.00090455,0.00
 087494,0.00079609,0.00117874,0.00011875,0.00014932,0.00002485,0.585416
 66,-0.00221891,-0.00008006,0.00656973,0.00081172,0.00134979,0.00565975
 ,-0.00497249,0.00009562,-0.07217592,0.00050175,-0.00132688,0.00567406,
 -0.00224056,0.00019897,0.00656778,0.00296132,0.00000420,0.00001831,-0.
 00012811,0.00000851,-0.00037301,0.00018909,0.00038358,-0.00324629,0.00
 017946,-0.00042658,-0.00324279,-0.00014037,-0.00001368,-0.00037354,0.0
 1416221,-0.00027529,0.53314064,0.00008531,-0.00010994,-0.00144343,-0.0
 0087711,0.00101643,-0.00071722,-0.01449446,0.00011264,0.03175712,-0.00
 086439,-0.00102097,-0.00070802,0.00008757,0.00009216,-0.00144277,-0.00
 111359,-0.00000073,-0.00005209,-0.00010307,-0.00001977,0.00013752,0.00
 006328,-0.00023752,0.00061049,0.00006389,0.00024548,0.00060763,-0.0001
 0225,0.00002136,0.00013743,-0.07193877,0.00030844,0.08164663,0.0811207
 8,0.00112059,-0.00057323,-0.00039781,-0.00193604,-0.00045125,-0.000571
 95,0.00000165,-0.00036135,0.00000960,0.00193592,-0.00044016,0.00057881
 ,-0.00112053,-0.00056868,0.00040190,0.00000085,0.00108332,-0.00000614,
 -0.00000433,-0.00000904,0.00007670,-0.00003175,-0.00005498,0.00021383,
 0.00003219,-0.00005844,-0.00021268,0.00000447,-0.00000982,-0.00007598,
 0.00029637,-0.04434809,-0.00084064,-0.00032356,0.04407290,0.00070817,-
 0.00002804,0.00002535,-0.00051677,-0.00080552,0.00027798,0.00213361,0.
 00001360,0.00324936,-0.00053767,0.00081264,0.00027121,0.00072219,0.000
 03407,0.00002307,-0.00069148,-0.00000688,-0.00007783,0.00004309,-0.000
 00410,0.00005008,0.00005173,-0.00004516,-0.00019837,0.00005225,0.00004
 249,-0.00019862,0.00004315,0.00000470,0.00005053,0.07795002,-0.0008401
 1,-0.27605066,-0.08782088,0.00093010,0.29957899,-0.00004023,-0.0015232
 4,0.00087383,-0.00563137,0.00179028,-0.00022747,-0.01298554,-0.0287482
 3,-0.01498143,0.00146889,-0.00149108,0.00060127,0.00021695,0.00000459,
 0.00039783,-0.00044998,0.00003946,-0.00002177,-0.00039478,0.00003430,-
 0.00003269,0.00005294,-0.00000757,-0.00028127,-0.00001375,0.00102592,-
 0.00032095,0.00003251,0.00001901,-0.00004301,-0.08283131,-0.07553108,-
 0.04444950,0.00381499,0.00953132,0.00374620,0.09220152,-0.00002558,-0.
 00010715,-0.00007772,-0.00026382,0.00060933,-0.00071919,-0.00032268,0.
 00082138,0.00232088,0.00195582,0.00023646,0.00048397,-0.00068490,0.000
 15753,0.00050367,0.00037477,0.00025414,0.00000180,-0.00005277,0.000008
 41,0.00003042,0.00016861,0.00033237,-0.00002637,0.00004596,0.00022388,
 -0.00039671,-0.00005601,-0.00001002,-0.00001712,-0.07829580,-0.2256223
 2,-0.09740138,0.00118503,0.00072869,0.00014552,0.08540698,0.24148563,0
 .00102281,-0.00017535,0.00008497,-0.00014618,-0.00013414,0.00066507,0.
 00308150,0.00293889,-0.00017425,-0.00005820,0.00001674,0.00061209,0.00
 000863,0.00004404,-0.00008894,-0.00059248,0.00041950,0.00001379,0.0000
 3480,0.00000661,-0.00009114,0.00002948,-0.00016435,0.00000431,-0.00022
 392,0.00034641,0.00002614,-0.00001728,-0.00000360,-0.00002255,-0.04684
 345,-0.09764433,-0.09982470,-0.01146850,-0.02591580,-0.01338646,0.0474
 2754,0.10764898,0.10429816,0.00021630,-0.00000106,0.00039458,0.0014729
 0,0.00150200,0.00058229,-0.01296802,0.02864223,-0.01519743,-0.00564343
 ,-0.00179104,-0.00020831,-0.00003847,0.00153652,0.00085275,-0.00044770
 ,-0.00004080,-0.00002134,0.00003260,-0.00001942,-0.00004243,-0.0000148
 3,-0.00103652,-0.00030749,0.00005306,0.00000435,-0.00027959,-0.0003953
 3,-0.00003466,-0.00003208,-0.08281344,0.07517260,-0.04496695,0.0038121
 5,-0.00950674,0.00381416,0.00434330,-0.00925710,0.00745982,0.09217586,
 0.00067844,0.00015381,-0.00050523,-0.00195301,0.00023786,-0.00048002,0
 .00033925,0.00076867,-0.00231988,0.00026118,0.00061936,0.00071954,0.00
 003298,-0.00010439,0.00008087,-0.00037471,0.00024807,-0.00000423,0.000
 05582,-0.00000982,0.00001703,-0.00005269,0.00022071,0.00039154,-0.0001
 6873,0.00033329,0.00002164,0.00005316,0.00000806,-0.00003165,0.0779395
 2,-0.22424560,0.09833103,-0.00127027,0.00091974,-0.00025250,0.00930612
 ,-0.01916276,0.01258203,-0.08502587,0.23996800,0.00000257,-0.00004635,
 -0.00008473,-0.00003869,-0.00001390,0.00061392,0.00307370,-0.00294371,
 -0.00013920,-0.00014966,0.00013639,0.00066536,0.00102184,0.00017706,0.
 00008600,-0.00058860,-0.00042115,0.00001884,-0.00001773,0.00000346,-0.
 00002294,-0.00022205,-0.00034935,0.00002915,0.00003101,0.00016099,0.00
 000035,0.00003426,-0.00000764,-0.00009186,-0.04739042,0.09857468,-0.10
 127610,-0.01145439,0.02581021,-0.01356670,0.00738810,-0.01238575,0.007
 87147,0.04802664,-0.10866028,0.10588528,-0.04007962,0.02231355,-0.0003
 9649,0.01267572,0.00848982,0.00000456,-0.00690994,0.00000261,0.0011492
 5,0.01267080,-0.00849467,0.00009615,-0.04009108,-0.02229817,-0.0001529
 6,-0.11102208,-0.00000359,-0.00012948,0.00018644,-0.00347888,0.0001070
 8,0.00065215,-0.00093277,0.00005466,0.00065165,0.00093360,0.00004446,0
 .00018752,0.00347871,0.00006696,0.00220085,-0.00000237,-0.00285065,0.0
 0142170,-0.00000118,0.00046905,0.00078202,-0.00015924,0.00062389,0.000
 77989,0.00015954,0.00062183,0.63242483,0.02563421,0.01404387,-0.000106
 50,0.00516735,-0.00647643,0.00020240,-0.00000022,-0.00528140,0.0000171
 3,-0.00517221,-0.00647422,-0.00003842,-0.02562014,0.01405665,-0.000098
 13,-0.00000095,-0.11137842,0.00020324,-0.00000219,-0.00372370,-0.00000
 579,0.00174055,0.00023736,0.00003329,-0.00174128,0.00023707,-0.0000237
 0,0.00000121,-0.00372450,-0.00000271,0.00000057,-0.00019596,-0.0000052
 1,0.00000101,0.00011609,-0.00000124,-0.00000236,0.00002673,0.00004074,
 0.00000119,0.00002806,-0.00004095,0.00006244,0.91281221,-0.00036371,0.
 00008295,-0.00527390,0.00004004,0.00016272,0.00886240,-0.00021879,0.00
 001958,-0.00189699,0.00009843,-0.00000059,0.00886204,-0.00010123,-0.00
 029217,-0.00527207,-0.00012028,0.00020012,-0.07287582,0.00002896,-0.00
 003725,-0.00456740,-0.00006302,0.00001867,0.00111376,-0.00004442,-0.00
 000934,0.00111394,0.00003025,0.00003224,-0.00456686,0.00029017,-0.0000
 0524,-0.00124792,0.00024703,-0.00000028,-0.00008877,-0.00007271,-0.000
 18898,0.00001853,-0.00007220,0.00018795,0.00001692,0.00145942,-0.00395
 653,0.22688341,-0.00208115,-0.00318529,0.00002505,-0.00104855,-0.00235
 354,0.00003529,0.00150787,-0.00182629,-0.00033850,-0.00446678,-0.00044
 634,-0.00003255,-0.00343854,0.00867802,-0.00001077,-0.03896482,-0.0506
 9601,0.00007774,-0.00361819,-0.00052564,-0.00002849,-0.00037043,0.0003
 0368,-0.00001797,-0.00111998,-0.00014418,-0.00002968,0.00067516,-0.000
 17034,-0.00001084,-0.00054887,-0.00002645,0.00075817,-0.00048810,0.000
 02488,-0.00008363,-0.00026869,0.00001088,-0.00015171,-0.00029690,0.000
 02990,-0.00018692,-0.23331836,-0.16904826,0.00041279,0.23997507,0.0097
 9840,-0.00801484,0.00015246,-0.00354244,-0.00005748,-0.00005989,0.0024
 4380,0.00037198,-0.00021587,-0.00250063,0.00171538,-0.00002459,0.00090
 938,0.00398893,0.00002183,-0.03652493,-0.01179283,0.00005765,0.0008354
 8,0.00366763,-0.00003582,-0.00024056,0.00011481,-0.00001328,-0.0003321
 9,-0.00010284,-0.00001854,0.00115076,0.00136867,-0.00000544,-0.0006626
 4,0.00028004,0.00068256,-0.00024988,-0.00002267,-0.00015318,-0.0000661
 6,0.00006531,-0.00014997,-0.00021144,-0.00004789,-0.00014303,-0.163759
 10,-0.40211830,0.00128045,0.20618963,0.53717199,-0.00007237,0.00003948
 ,0.00216068,0.00000503,-0.00002969,-0.00104856,0.00003445,-0.00001973,
 0.00039035,-0.00001147,-0.00000783,-0.00128594,0.00000129,0.00004486,0
 .00393172,0.00003222,-0.00000508,0.01720888,-0.00002048,-0.00002379,0.
 00018511,0.00000432,0.00000010,-0.00000718,0.00001512,0.00000371,-0.00
 052404,-0.00001355,-0.00000929,0.00042626,-0.00005754,-0.00000641,0.00
 008641,-0.00001684,0.00000449,0.00002127,0.00000100,0.00004617,-0.0000
 0057,-0.00000255,-0.00003117,-0.00000395,0.00036703,0.00126250,-0.0755
 3290,-0.00041763,-0.00221081,0.02742961,-0.00344087,-0.00867565,0.0000
 7982,-0.00446605,0.00044781,-0.00003444,0.00150723,0.00182452,-0.00035
 713,-0.00104667,0.00235383,0.00001123,-0.00208383,0.00318281,-0.000014
 92,-0.03893692,0.05070276,-0.00050886,0.00067488,0.00017038,-0.0000142
 1,-0.00111992,0.00014393,-0.00003082,-0.00037033,-0.00030387,-0.000014
 93,-0.00361843,0.00052761,-0.00003622,-0.00054830,0.00002783,0.0007572
 0,-0.00048793,-0.00002409,-0.00008320,-0.00029749,-0.00003015,-0.00018
 676,-0.00026793,-0.00001064,-0.00015147,-0.23321248,0.16897907,-0.0015
 5074,0.04787124,-0.01323748,0.00015196,0.23984380,-0.00090740,0.003991
 59,-0.00002385,0.00250213,0.00171445,-0.00000983,-0.00244366,0.0003732
 4,0.00021667,0.00354237,-0.00005841,0.00004899,-0.00979962,-0.00801338
 ,-0.00004617,0.03653032,-0.01181763,0.00028240,-0.00115062,0.00136902,
 -0.00000170,0.00033270,-0.00010275,0.00001389,0.00024070,0.00011504,0.
 00001174,-0.00083332,0.00366811,-0.00000292,0.00066247,0.00027917,-0.0
 0068455,0.00025008,-0.00002303,0.00015362,0.00021174,-0.00004762,0.000
 14359,0.00006574,0.00006483,0.00014931,0.16368970,-0.40218510,0.002505
 70,0.01318535,-0.12658790,0.00094250,-0.20607868,0.53726038,0.00000764
 ,-0.00005020,0.00393244,-0.00003933,-0.00002312,-0.00128646,0.00006207
 ,0.00001867,0.00038762,-0.00003647,0.00002172,-0.00104897,0.00003838,0
 .00007260,0.00216141,-0.00039167,0.00034549,0.01720564,0.00000004,-0.0
 0000216,0.00042631,0.00001093,-0.00000813,-0.00052419,0.00000161,-0.00
 000159,-0.00000727,-0.00001206,-0.00001421,0.00018479,-0.00006500,0.00
 000421,0.00009423,-0.00001971,-0.00000435,0.00001956,-0.00000496,0.000
 03181,-0.00000594,0.00000014,-0.00004669,-0.00000182,-0.00153475,0.002
 51987,-0.07554838,-0.00000035,0.00083547,0.02656283,0.00198348,-0.0036
 9939,0.02744819\\-0.00002856,0.00001282,-0.00000229,0.00002009,-0.0000
 3476,-0.00000076,-0.00002318,0.00000362,-0.00000157,0.00002527,0.00003
 138,-0.00000177,-0.00003079,-0.00001406,0.00000014,0.00007054,0.000001
 40,0.00001202,0.00000726,0.00000304,0.00000078,-0.00000380,0.00001678,
 -0.00000039,-0.00000456,-0.00001625,0.00000079,0.00000705,-0.00000328,
 -0.00000018,0.00002079,-0.00000126,0.00000064,-0.00000464,0.00000034,0
 .00001441,-0.00000632,-0.00001423,-0.00001124,-0.00000658,0.00001437,-
 0.00001154,-0.00013635,-0.00000519,-0.00000584,0.00004846,0.00007416,0
 .00000390,0.00004531,-0.00006885,0.00000289\\\@


 SILVERMAN'S PARADOX - IF MURPHY'S LAW CAN GO WRONG, IT WILL.
 Job cpu time:       0 days  0 hours 12 minutes 12.1 seconds.
 Elapsed time:       0 days  0 hours  1 minutes 12.0 seconds.
 File lengths (MBytes):  RWF=    120 Int=      0 D2E=      0 Chk=     10 Scr=      1
 Normal termination of Gaussian 16 at Tue Jul 18 12:37:46 2023.
