 Entering Gaussian System, Link 0=g16
 Initial command:
 /home/kimariyb/g16/l1.exe "/home/kimariyb/g16/scratch/Gau-531288.inp" -scrdir="/home/kimariyb/g16/scratch/"
 Default is to use a total of  10 processors:
                               10 via shared-memory
                                1 via Linda
 Entering Link 1 = /home/kimariyb/g16/l1.exe PID=    531289.
  
 Copyright (c) 1988,1990,1992,1993,1995,1998,2003,2009,2016,
            Gaussian, Inc.  All Rights Reserved.
  
 This is part of the Gaussian(R) 16 program.  It is based on
 the Gaussian(R) 09 system (copyright 2009, Gaussian, Inc.),
 the Gaussian(R) 03 system (copyright 2003, Gaussian, Inc.),
 the Gaussian(R) 98 system (copyright 1998, Gaussian, Inc.),
 the Gaussian(R) 94 system (copyright 1995, Gaussian, Inc.),
 the Gaussian 92(TM) system (copyright 1992, Gaussian, Inc.),
 the Gaussian 90(TM) system (copyright 1990, Gaussian, Inc.),
 the Gaussian 88(TM) system (copyright 1988, Gaussian, Inc.),
 the Gaussian 86(TM) system (copyright 1986, Carnegie Mellon
 University), and the Gaussian 82(TM) system (copyright 1983,
 Carnegie Mellon University). Gaussian is a federally registered
 trademark of Gaussian, Inc.
  
 This software contains proprietary and confidential information,
 including trade secrets, belonging to Gaussian, Inc.
  
 This software is provided under written license and may be
 used, copied, transmitted, or stored only in accord with that
 written license.
  
 The following legend is applicable only to US Government
 contracts under FAR:
  
                    RESTRICTED RIGHTS LEGEND
  
 Use, reproduction and disclosure by the US Government is
 subject to restrictions as set forth in subparagraphs (a)
 and (c) of the Commercial Computer Software - Restricted
 Rights clause in FAR 52.227-19.
  
 Gaussian, Inc.
 340 Quinnipiac St., Bldg. 40, Wallingford CT 06492
  
  
 ---------------------------------------------------------------
 Warning -- This program may not be used in any manner that
 competes with the business of Gaussian, Inc. or will provide
 assistance to any competitor of Gaussian, Inc.  The licensee
 of this program is prohibited from giving any competitor of
 Gaussian, Inc. access to this program.  By using this program,
 the user acknowledges that Gaussian, Inc. is engaged in the
 business of creating and licensing software in the field of
 computational chemistry and represents and warrants to the
 licensee that it is not a competitor of Gaussian, Inc. and that
 it will not use this program in any manner prohibited above.
 ---------------------------------------------------------------
  

 Cite this work as:
 Gaussian 16, Revision A.03,
 M. J. Frisch, G. W. Trucks, H. B. Schlegel, G. E. Scuseria, 
 M. A. Robb, J. R. Cheeseman, G. Scalmani, V. Barone, 
 G. A. Petersson, H. Nakatsuji, X. Li, M. Caricato, A. V. Marenich, 
 J. Bloino, B. G. Janesko, R. Gomperts, B. Mennucci, H. P. Hratchian, 
 J. V. Ortiz, A. F. Izmaylov, J. L. Sonnenberg, D. Williams-Young, 
 F. Ding, F. Lipparini, F. Egidi, J. Goings, B. Peng, A. Petrone, 
 T. Henderson, D. Ranasinghe, V. G. Zakrzewski, J. Gao, N. Rega, 
 G. Zheng, W. Liang, M. Hada, M. Ehara, K. Toyota, R. Fukuda, 
 J. Hasegawa, M. Ishida, T. Nakajima, Y. Honda, O. Kitao, H. Nakai, 
 T. Vreven, K. Throssell, J. A. Montgomery, Jr., J. E. Peralta, 
 F. Ogliaro, M. J. Bearpark, J. J. Heyd, E. N. Brothers, K. N. Kudin, 
 V. N. Staroverov, T. A. Keith, R. Kobayashi, J. Normand, 
 K. Raghavachari, A. P. Rendell, J. C. Burant, S. S. Iyengar, 
 J. Tomasi, M. Cossi, J. M. Millam, M. Klene, C. Adamo, R. Cammi, 
 J. W. Ochterski, R. L. Martin, K. Morokuma, O. Farkas, 
 J. B. Foresman, and D. J. Fox, Gaussian, Inc., Wallingford CT, 2016.
 
 ******************************************
 Gaussian 16:  ES64L-G16RevA.03 25-Dec-2016
                16-Jul-2023 
 ******************************************
 -----------------------------------------------
 # freq b3lyp/6-311g(d) scrf(solvent=chloroform)
 -----------------------------------------------
 1/10=4,30=1,38=1/1,3;
 2/12=2,17=6,18=5,40=1/2;
 3/5=4,6=6,7=1,11=2,25=1,30=1,70=2201,71=2,72=7,74=-5,140=1/1,2,3;
 4//1;
 5/5=2,38=5,53=7,98=1/2;
 8/6=4,10=90,11=11/1;
 11/6=1,8=1,9=11,15=111,16=1/1,2,10;
 10/6=1/2;
 6/7=2,8=2,9=2,10=2,28=1/1;
 7/8=1,10=1,25=1/1,2,3,16;
 1/10=4,30=1/3;
 99//99;
 -------------------
 Title Card Required
 -------------------
 Symbolic Z-matrix:
 Charge =  0 Multiplicity = 1
 C                    -1.13935  -1.49709   0.91878 
 C                    -1.57208  -0.3628    0.19241 
 C                    -0.72036   0.79267  -0.05317 
 C                    -1.97323  -2.56236   1.15016 
 C                    -2.93688  -0.3123   -0.18409 
 C                     0.72037   0.79271   0.05301 
 C                    -1.36231   2.01623  -0.32272 
 C                    -3.29366  -2.55116   0.67013 
 C                    -3.7662   -1.43565   0.02854 
 C                     1.36221   2.01629   0.3227 
 C                    -3.48831   0.90808  -0.68359 
 C                     1.57214  -0.36271  -0.19253 
 C                    -2.74732   2.03835  -0.6812 
 C                    -0.64718   3.23817  -0.20459 
 C                     0.64704   3.2382    0.20454 
 C                     2.93688  -0.31223   0.18421 
 C                     2.74719   2.03842   0.68133 
 C                     3.4882    0.90817   0.68377 
 C                     1.13951  -1.49693  -0.91905 
 C                     3.76619  -1.43559  -0.02828 
 C                     1.9734   -2.56223  -1.1503 
 C                     3.29372  -2.55106  -0.67001 
 H                    -0.13493  -1.52177   1.31942 
 H                    -1.61046  -3.41232   1.71839 
 H                    -3.94325  -3.40319   0.8404 
 H                    -4.80123  -1.38668  -0.29683 
 H                    -4.53116   0.92774  -0.98499 
 H                    -3.18915   2.98914  -0.96378 
 H                    -1.17227   4.17103  -0.38538 
 H                     1.17212   4.17108   0.38522 
 H                     3.189     2.98923   0.9639 
 H                     4.53105   0.9279    0.9852 
 H                     0.13514  -1.52155  -1.31982 
 H                     4.80123  -1.38663   0.29707 
 H                     1.61077  -3.41215  -1.71868 
 H                     3.94333  -3.4031   -0.84017 
 

 GradGradGradGradGradGradGradGradGradGradGradGradGradGradGradGradGradGrad
 Berny optimization.
 Initialization pass.
 Trust Radius=3.00D-01 FncErr=1.00D-07 GrdErr=1.00D-07 EigMax=2.50D+02 EigMin=1.00D-04
 Number of steps in this run=      2 maximum allowed number of steps=      2.
 GradGradGradGradGradGradGradGradGradGradGradGradGradGradGradGradGradGrad

                          Input orientation:                          
 ---------------------------------------------------------------------
 Center     Atomic      Atomic             Coordinates (Angstroms)
 Number     Number       Type             X           Y           Z
 ---------------------------------------------------------------------
      1          6           0       -1.139349   -1.497088    0.918775
      2          6           0       -1.572082   -0.362797    0.192410
      3          6           0       -0.720364    0.792666   -0.053169
      4          6           0       -1.973226   -2.562358    1.150155
      5          6           0       -2.936876   -0.312296   -0.184091
      6          6           0        0.720366    0.792710    0.053006
      7          6           0       -1.362311    2.016235   -0.322724
      8          6           0       -3.293659   -2.551157    0.670125
      9          6           0       -3.766198   -1.435650    0.028535
     10          6           0        1.362207    2.016295    0.322696
     11          6           0       -3.488309    0.908076   -0.683586
     12          6           0        1.572137   -0.362709   -0.192533
     13          6           0       -2.747319    2.038346   -0.681203
     14          6           0       -0.647182    3.238171   -0.204592
     15          6           0        0.647038    3.238199    0.204543
     16          6           0        2.936876   -0.312232    0.184208
     17          6           0        2.747191    2.038421    0.681326
     18          6           0        3.488203    0.908174    0.683774
     19          6           0        1.139509   -1.496931   -0.919053
     20          6           0        3.766192   -1.435585   -0.028281
     21          6           0        1.973403   -2.562225   -1.150300
     22          6           0        3.293717   -2.551057   -0.670014
     23          1           0       -0.134926   -1.521768    1.319421
     24          1           0       -1.610463   -3.412317    1.718391
     25          1           0       -3.943245   -3.403186    0.840397
     26          1           0       -4.801228   -1.386680   -0.296834
     27          1           0       -4.531157    0.927741   -0.984990
     28          1           0       -3.189148    2.989141   -0.963781
     29          1           0       -1.172267    4.171035   -0.385375
     30          1           0        1.172123    4.171084    0.385217
     31          1           0        3.189004    2.989225    0.963904
     32          1           0        4.531048    0.927902    0.985195
     33          1           0        0.135142   -1.521554   -1.319824
     34          1           0        4.801227   -1.386628    0.297072
     35          1           0        1.610770   -3.412146   -1.718675
     36          1           0        3.943329   -3.403096   -0.840167
 ---------------------------------------------------------------------
                    Distance matrix (angstroms):
                    1          2          3          4          5
     1  C    0.000000
     2  C    1.414737   0.000000
     3  C    2.522538   1.456306   0.000000
     4  C    1.372475   2.432336   3.778073   0.000000
     5  C    2.418915   1.416674   2.480122   2.787761   0.000000
     6  C    3.074292   2.570982   1.444637   4.440231   3.827881
     7  C    3.732890   2.443186   1.407792   4.848309   2.814344
     8  C    2.411211   2.825059   4.280906   1.405026   2.422700
     9  C    2.774281   2.447859   3.774808   2.396299   1.412412
    10  C    4.353958   3.779829   2.444513   5.724846   4.915413
    11  C    3.724243   2.460572   2.841173   4.207374   1.429294
    12  C    3.142289   3.167695   2.570968   4.383020   4.509303
    13  C    4.200570   2.812449   2.460628   5.011943   2.410098
    14  C    4.891509   3.738987   2.451281   6.102448   4.224800
    15  C    5.111189   4.229872   2.813687   6.434783   5.059792
    16  C    4.308025   4.509249   3.827865   5.486823   5.885287
    17  C    5.259411   4.965985   3.757037   6.608275   6.211557
    18  C    5.220608   5.240543   4.274162   6.487627   6.597301
    19  C    2.927594   3.142346   3.074270   3.886628   4.308183
    20  C    4.996502   5.449472   5.009482   5.966511   6.798322
    21  C    3.886491   4.383015   4.440199   4.568148   5.486946
    22  C    4.825679   5.404466   5.260592   5.572596   6.638408
    23  H    1.081662   2.163050   2.753788   2.119157   3.402102
    24  H    2.128247   3.410229   4.648934   1.084859   3.871555
    25  H    3.391340   3.909766   5.365687   2.164236   3.408219
    26  H    3.859955   3.422730   4.632750   3.387269   2.154720
    27  H    4.583501   3.436260   3.925389   4.825209   2.172755
    28  H    5.279389   3.897072   3.427625   6.063525   3.401624
    29  H    5.816314   4.587954   3.424610   6.952551   4.822304
    30  H    6.144572   5.303198   3.897101   7.471117   6.108083
    31  H    6.234074   5.873601   4.598094   7.583098   7.052967
    32  H    6.167527   6.288291   5.354794   7.383408   7.659975
    33  H    2.576092   2.558160   2.773431   3.410174   3.491345
    34  H    5.974040   6.455870   5.946424   6.928442   7.827129
    35  H    4.264592   4.804302   5.088078   4.668763   5.713589
    36  H    5.706169   6.381958   6.322485   6.298718   7.571044
                    6          7          8          9         10
     6  C    0.000000
     7  C    2.444531   0.000000
     8  C    5.260673   5.057363   0.000000
     9  C    5.009535   4.221086   1.370871   0.000000
    10  C    1.407783   2.799922   6.531417   6.188941   0.000000
    11  C    4.274204   2.424480   3.719774   2.465236   5.076245
    12  C    1.456295   3.779856   5.404577   5.449577   2.443193
    13  C    3.757062   1.430819   4.815404   3.689240   4.230426
    14  C    2.813685   1.420737   6.425363   5.623808   2.410116
    15  C    2.451277   2.410122   7.018725   6.430591   1.420731
    16  C    2.480126   4.915460   6.638408   6.798346   2.814391
    17  C    2.460610   4.230439   7.586582   7.410772   1.430834
    18  C    2.841148   5.076251   7.613200   7.651744   2.424493
    19  C    2.522506   4.353969   4.825957   4.996763   3.732866
    20  C    3.774780   6.188966   7.181488   7.532604   4.221114
    21  C    3.778047   5.724873   5.572792   5.966728   4.848311
    22  C    4.280849   6.531414   6.722313   7.181539   5.057362
    23  H    2.773471   4.089081   3.385088   3.854859   3.968974
    24  H    5.088077   5.804904   2.161853   3.377872   6.344648
    25  H    6.322562   6.114262   1.084854   2.135805   7.601750
    26  H    5.946438   4.838042   2.136301   1.086071   7.067672
    27  H    5.354826   3.415406   4.046423   2.682911   6.134063
    28  H    4.598094   2.166756   5.777151   4.571264   4.828694
    29  H    3.897091   2.164071   7.127570   6.191504   3.401151
    30  H    3.424596   3.401163   8.075451   7.479953   2.164060
    31  H    3.427621   4.828725   8.532705   8.296341   2.166778
    32  H    3.925373   6.134069   8.569082   8.680200   3.415415
    33  H    2.753719   3.968945   4.095932   4.128669   4.089002
    34  H    4.632765   7.067731   8.186726   8.571773   4.838119
    35  H    4.648923   6.344699   5.522779   5.989246   5.804907
    36  H    5.365635   7.601757   7.441826   8.003892   6.114265
                   11         12         13         14         15
    11  C    0.000000
    12  C    5.240624   0.000000
    13  C    1.351511   4.966041   0.000000
    14  C    3.705507   4.229877   2.465221   0.000000
    15  C    4.829010   3.738986   3.707540   1.357349   0.000000
    16  C    6.597365   1.416684   6.211620   5.059842   4.224847
    17  C    6.482447   2.812438   5.660930   3.707562   2.465245
    18  C    7.109247   2.460562   6.482452   4.829026   3.705523
    19  C    5.220747   1.414729   5.259486   5.111155   4.891467
    20  C    7.651794   2.447840   7.410825   6.430626   5.623841
    21  C    6.487766   2.432325   6.608368   6.434782   6.102439
    22  C    7.613256   2.825012   7.586624   7.018722   6.425360
    23  H    4.600147   2.558024   4.847835   5.024146   4.950930
    24  H    5.287872   4.804236   6.063021   6.989618   7.184526
    25  H    4.595266   6.382075   5.775446   7.487567   8.098333
    26  H    2.671935   6.455941   4.012117   6.217222   7.164111
    27  H    1.085709   6.288358   2.123160   4.586106   5.793696
    28  H    2.121046   5.873632   1.085852   2.664578   4.017877
    29  H    4.012466   5.303185   2.667708   1.085648   2.127923
    30  H    5.788712   4.587928   4.587793   2.127927   1.085648
    31  H    7.185535   3.897059   6.233015   4.017920   2.664622
    32  H    8.191173   3.436259   7.548814   5.793704   4.586112
    33  H    4.408775   2.163021   4.624857   4.950834   5.024040
    34  H    8.657007   3.422739   8.346737   7.164188   6.217304
    35  H    6.762864   3.410230   7.055292   7.184533   6.989609
    36  H    8.593018   3.909723   8.625505   8.098344   7.487573
                   16         17         18         19         20
    16  C    0.000000
    17  C    2.410120   0.000000
    18  C    1.429307   1.351504   0.000000
    19  C    2.418930   4.200544   3.724238   0.000000
    20  C    1.412388   3.689258   2.465260   2.774293   0.000000
    21  C    2.787770   5.011940   4.207388   1.372482   2.396317
    22  C    2.422678   4.815404   3.719791   2.411185   1.370887
    23  H    3.491082   4.624793   4.408597   2.575959   4.128250
    24  H    5.713365   7.055154   6.762653   4.264641   5.988886
    25  H    7.571040   8.625446   8.592949   5.706475   8.003841
    26  H    7.827138   8.346661   8.656940   5.974250   8.571767
    27  H    7.660031   7.548812   8.191172   6.167644   8.680242
    28  H    7.053022   6.233006   7.185533   6.234109   8.296392
    29  H    6.108123   4.587815   5.788724   6.144506   7.479979
    30  H    4.822331   2.667728   4.012474   5.816234   6.191519
    31  H    3.401634   1.085853   2.121029   5.279352   4.571271
    32  H    2.172762   2.123143   1.085712   4.583504   2.682948
    33  H    3.402100   4.847765   4.600109   1.081655   3.854867
    34  H    2.154732   4.012191   2.672019   3.859962   1.086070
    35  H    3.871561   6.063014   5.287881   2.128269   3.377879
    36  H    3.408186   5.775448   4.595279   3.391326   2.135799
                   21         22         23         24         25
    21  C    0.000000
    22  C    1.405001   0.000000
    23  H    3.409857   4.095471   0.000000
    24  H    4.668634   5.522430   2.431165   0.000000
    25  H    6.298953   7.441847   4.274633   2.492555   0.000000
    26  H    6.928632   8.186768   4.940132   4.283144   2.468952
    27  H    7.383528   8.569125   5.535093   5.888533   4.736518
    28  H    7.583165   8.532739   5.906741   7.117932   6.684726
    29  H    7.471087   8.075429   6.032447   7.881946   8.157797
    30  H    6.952504   7.127542   5.915207   8.187070   9.151161
    31  H    6.063509   5.777143   5.614620   8.036409   9.578473
    32  H    4.825233   4.046463   5.280521   7.556007   9.518032
    33  H    2.119183   3.385074   2.653027   3.981567   4.984008
    34  H    3.387256   2.136290   5.042724   6.872651   8.990411
    35  H    1.084859   2.161822   3.981333   4.710601   6.115228
    36  H    2.164222   1.084859   4.983511   6.114811   8.063643
                   26         27         28         29         30
    26  H    0.000000
    27  H    2.429618   0.000000
    28  H    4.710778   2.459839   0.000000
    29  H    6.638177   4.707508   2.408160   0.000000
    30  H    8.187482   6.702548   4.715662   2.467788   0.000000
    31  H    9.196837   8.224888   6.663092   4.715709   2.408211
    32  H    9.700117   9.273898   8.224879   6.702550   4.707503
    33  H    5.043059   5.280673   5.614627   5.915073   6.032298
    34  H    9.620804   9.700174   9.196912   8.187550   6.638247
    35  H    6.872981   7.556201   8.036514   8.187040   7.881887
    36  H    8.990463   9.518090   9.578528   9.151154   8.157779
                   31         32         33         34         35
    31  H    0.000000
    32  H    2.459794   0.000000
    33  H    5.906658   5.535064   0.000000
    34  H    4.710840   2.429724   4.940132   0.000000
    35  H    7.117907   5.888544   2.431234   4.283103   0.000000
    36  H    6.684717   4.736550   4.274641   2.468895   2.492527
                   36
    36  H    0.000000
 Stoichiometry    C22H14
 Framework group  C1[X(C22H14)]
 Deg. of freedom   102
 Full point group                 C1      NOp   1
 Largest Abelian subgroup         C1      NOp   1
 Largest concise Abelian subgroup C1      NOp   1
                         Standard orientation:                         
 ---------------------------------------------------------------------
 Center     Atomic      Atomic             Coordinates (Angstroms)
 Number     Number       Type             X           Y           Z
 ---------------------------------------------------------------------
      1          6           0        1.139349   -1.497088   -0.918775
      2          6           0        1.572082   -0.362797   -0.192410
      3          6           0        0.720364    0.792666    0.053169
      4          6           0        1.973226   -2.562358   -1.150155
      5          6           0        2.936876   -0.312296    0.184091
      6          6           0       -0.720366    0.792710   -0.053006
      7          6           0        1.362311    2.016235    0.322724
      8          6           0        3.293659   -2.551157   -0.670125
      9          6           0        3.766198   -1.435650   -0.028535
     10          6           0       -1.362207    2.016295   -0.322696
     11          6           0        3.488309    0.908076    0.683586
     12          6           0       -1.572137   -0.362709    0.192533
     13          6           0        2.747319    2.038346    0.681203
     14          6           0        0.647182    3.238171    0.204592
     15          6           0       -0.647038    3.238199   -0.204543
     16          6           0       -2.936876   -0.312232   -0.184208
     17          6           0       -2.747191    2.038421   -0.681326
     18          6           0       -3.488203    0.908174   -0.683774
     19          6           0       -1.139509   -1.496931    0.919053
     20          6           0       -3.766192   -1.435585    0.028281
     21          6           0       -1.973403   -2.562225    1.150300
     22          6           0       -3.293717   -2.551057    0.670014
     23          1           0        0.134926   -1.521768   -1.319421
     24          1           0        1.610463   -3.412317   -1.718391
     25          1           0        3.943245   -3.403186   -0.840397
     26          1           0        4.801228   -1.386680    0.296834
     27          1           0        4.531157    0.927741    0.984990
     28          1           0        3.189148    2.989141    0.963781
     29          1           0        1.172267    4.171035    0.385375
     30          1           0       -1.172123    4.171084   -0.385217
     31          1           0       -3.189004    2.989225   -0.963904
     32          1           0       -4.531048    0.927902   -0.985195
     33          1           0       -0.135142   -1.521554    1.319824
     34          1           0       -4.801227   -1.386628   -0.297072
     35          1           0       -1.610770   -3.412146    1.718675
     36          1           0       -3.943329   -3.403096    0.840167
 ---------------------------------------------------------------------
 Rotational constants (GHZ):           0.4503970           0.2830794           0.1874452
 Standard basis: 6-311G(d) (5D, 7F)
 There are   460 symmetry adapted cartesian basis functions of A   symmetry.
 There are   438 symmetry adapted basis functions of A   symmetry.
   438 basis functions,   774 primitive gaussians,   460 cartesian basis functions
    73 alpha electrons       73 beta electrons
       nuclear repulsion energy      1607.8715194182 Hartrees.
 NAtoms=   36 NActive=   36 NUniq=   36 SFac= 1.00D+00 NAtFMM=   60 NAOKFM=F Big=F
 Integral buffers will be    131072 words long.
 Raffenetti 2 integral format.
 Two-electron integral symmetry is turned on.
 Force inversion solution in PCM.
 ------------------------------------------------------------------------------
 Polarizable Continuum Model (PCM)
 =================================
 Model                : PCM.
 Atomic radii         : UFF (Universal Force Field).
 Polarization charges : Total charges.
 Charge compensation  : None.
 Solution method      : Matrix inversion.
 Cavity type          : Scaled VdW (van der Waals Surface) (Alpha=1.100).
 Cavity algorithm     : GePol (No added spheres)
                        Default sphere list used, NSphG=   36.
                        Lebedev-Laikov grids with approx.  5.0 points / Ang**2.
                        Smoothing algorithm: York/Karplus (Gamma=1.0000).
                        Polarization charges: spherical gaussians, with
                                              point-specific exponents (IZeta= 3).
                        Self-potential: point-specific (ISelfS= 7).
                        Self-field    : sphere-specific E.n sum rule (ISelfD= 2).
 1st derivatives      : Analytical E(r).r(x)/FMM algorithm (CHGder, D1EAlg=3).
                        Cavity 1st derivative terms included.
 2nd derivatives      : Analytical E(r).r(xy)/FMM algorithm (CHGder, D2EAlg=3).
                        Cavity 2nd derivative terms included.
 Solvent              : Chloroform, Eps=   4.711300 Eps(inf)=   2.090627
 ------------------------------------------------------------------------------
 One-electron integrals computed using PRISM.
 NBasis=   438 RedAO= T EigKep=  5.95D-05  NBF=   438
 NBsUse=   438 1.00D-06 EigRej= -1.00D+00 NBFU=   438
 ExpMin= 1.03D-01 ExpMax= 4.56D+03 ExpMxC= 6.82D+02 IAcc=3 IRadAn=         5 AccDes= 0.00D+00
 Harris functional with IExCor=  402 and IRadAn=       5 diagonalized for initial guess.
 HarFok:  IExCor=  402 AccDes= 0.00D+00 IRadAn=         5 IDoV= 1 UseB2=F ITyADJ=14
 ICtDFT=  3500011 ScaDFX=  1.000000  1.000000  1.000000  1.000000
 FoFCou: FMM=F IPFlag=           0 FMFlag=      100000 FMFlg1=           0
         NFxFlg=           0 DoJE=T BraDBF=F KetDBF=T FulRan=T
         wScrn=  0.000000 ICntrl=       500 IOpCl=  0 I1Cent=   200000004 NGrid=           0
         NMat0=    1 NMatS0=      1 NMatT0=    0 NMatD0=    1 NMtDS0=    0 NMtDT0=    0
 Petite list used in FoFCou.
 Requested convergence on RMS density matrix=1.00D-08 within 128 cycles.
 Requested convergence on MAX density matrix=1.00D-06.
 Requested convergence on             energy=1.00D-06.
 No special actions if energy rises.
 Inv3:  Mode=1 IEnd=    21035712.
 Iteration    1 A*A^-1 deviation from unit magnitude is 3.22D-15 for   1865.
 Iteration    1 A*A^-1 deviation from orthogonality  is 2.22D-15 for   2374   2147.
 Iteration    1 A^-1*A deviation from unit magnitude is 3.33D-15 for    203.
 Iteration    1 A^-1*A deviation from orthogonality  is 1.64D-15 for   2213    512.
 Error on total polarization charges =  0.01355
 SCF Done:  E(RB3LYP) =  -846.976306782     A.U. after   12 cycles
            NFock= 12  Conv=0.72D-08     -V/T= 2.0039
 DoSCS=F DFT=T ScalE2(SS,OS)=  1.000000  1.000000
 Range of M.O.s used for correlation:     1   438
 NBasis=   438 NAE=    73 NBE=    73 NFC=     0 NFV=     0
 NROrb=    438 NOA=    73 NOB=    73 NVA=   365 NVB=   365

 **** Warning!!: The largest alpha MO coefficient is  0.19636653D+02

 Symmetrizing basis deriv contribution to polar:
 IMax=3 JMax=2 DiffMx= 0.00D+00
 G2DrvN: will do    37 centers at a time, making    1 passes.
 Calling FoFCou, ICntrl=  3107 FMM=F I1Cent=   0 AccDes= 0.00D+00.
 NEqPCM:  Using equilibrium solvation (IEInf=0, Eps=   4.7113, EpsInf=   2.0906)
 G2PCM: DoFxE=T DoFxN=T DoGrad=T DoDP/DQ/DG/TGxP=FFFF NFrqRd=   0 IEInf=0 SqF1=F DoCFld=F IF1Alg=4.
 End of G2Drv F.D. properties file   721 does not exist.
 End of G2Drv F.D. properties file   722 does not exist.
 End of G2Drv F.D. properties file   788 does not exist.
          IDoAtm=111111111111111111111111111111111111
 NEqPCM:  Using equilibrium solvation (IEInf=0, Eps=   4.7113, EpsInf=   2.0906)
          Differentiating once with respect to electric field.
                with respect to dipole field.
          Differentiating once with respect to nuclear coordinates.
 CalDSu exits because no D1Ps are significant.
          There are   111 degrees of freedom in the 1st order CPHF.  IDoFFX=6 NUNeed=     3.
    108 vectors produced by pass  0 Test12= 2.66D-14 1.00D-09 XBig12= 5.74D+02 1.40D+01.
 AX will form   108 AO Fock derivatives at one time.
    108 vectors produced by pass  1 Test12= 2.66D-14 1.00D-09 XBig12= 5.16D+01 9.23D-01.
    108 vectors produced by pass  2 Test12= 2.66D-14 1.00D-09 XBig12= 7.60D-01 8.93D-02.
    108 vectors produced by pass  3 Test12= 2.66D-14 1.00D-09 XBig12= 2.90D-03 5.18D-03.
    108 vectors produced by pass  4 Test12= 2.66D-14 1.00D-09 XBig12= 6.02D-06 1.96D-04.
    100 vectors produced by pass  5 Test12= 2.66D-14 1.00D-09 XBig12= 7.59D-09 6.46D-06.
     23 vectors produced by pass  6 Test12= 2.66D-14 1.00D-09 XBig12= 8.79D-12 2.65D-07.
      3 vectors produced by pass  7 Test12= 2.66D-14 1.00D-09 XBig12= 1.14D-14 7.46D-09.
      3 vectors produced by pass  8 Test12= 2.66D-14 1.00D-09 XBig12= 1.88D-14 1.58D-08.
      2 vectors produced by pass  9 Test12= 2.66D-14 1.00D-09 XBig12= 5.42D-14 2.12D-08.
 InvSVY:  IOpt=1 It=  1 EMax= 1.42D-14
 Solved reduced A of dimension   671 with   111 vectors.
 Isotropic polarizability for W=    0.000000      327.29 Bohr**3.
 End of Minotr F.D. properties file   721 does not exist.
 End of Minotr F.D. properties file   722 does not exist.
 End of Minotr F.D. properties file   788 does not exist.

 **********************************************************************

            Population analysis using the SCF density.

 **********************************************************************

 Orbital symmetries:
       Occupied  (A) (A) (A) (A) (A) (A) (A) (A) (A) (A) (A) (A)
                 (A) (A) (A) (A) (A) (A) (A) (A) (A) (A) (A) (A)
                 (A) (A) (A) (A) (A) (A) (A) (A) (A) (A) (A) (A)
                 (A) (A) (A) (A) (A) (A) (A) (A) (A) (A) (A) (A)
                 (A) (A) (A) (A) (A) (A) (A) (A) (A) (A) (A) (A)
                 (A) (A) (A) (A) (A) (A) (A) (A) (A) (A) (A) (A)
                 (A)
       Virtual   (A) (A) (A) (A) (A) (A) (A) (A) (A) (A) (A) (A)
                 (A) (A) (A) (A) (A) (A) (A) (A) (A) (A) (A) (A)
                 (A) (A) (A) (A) (A) (A) (A) (A) (A) (A) (A) (A)
                 (A) (A) (A) (A) (A) (A) (A) (A) (A) (A) (A) (A)
                 (A) (A) (A) (A) (A) (A) (A) (A) (A) (A) (A) (A)
                 (A) (A) (A) (A) (A) (A) (A) (A) (A) (A) (A) (A)
                 (A) (A) (A) (A) (A) (A) (A) (A) (A) (A) (A) (A)
                 (A) (A) (A) (A) (A) (A) (A) (A) (A) (A) (A) (A)
                 (A) (A) (A) (A) (A) (A) (A) (A) (A) (A) (A) (A)
                 (A) (A) (A) (A) (A) (A) (A) (A) (A) (A) (A) (A)
                 (A) (A) (A) (A) (A) (A) (A) (A) (A) (A) (A) (A)
                 (A) (A) (A) (A) (A) (A) (A) (A) (A) (A) (A) (A)
                 (A) (A) (A) (A) (A) (A) (A) (A) (A) (A) (A) (A)
                 (A) (A) (A) (A) (A) (A) (A) (A) (A) (A) (A) (A)
                 (A) (A) (A) (A) (A) (A) (A) (A) (A) (A) (A) (A)
                 (A) (A) (A) (A) (A) (A) (A) (A) (A) (A) (A) (A)
                 (A) (A) (A) (A) (A) (A) (A) (A) (A) (A) (A) (A)
                 (A) (A) (A) (A) (A) (A) (A) (A) (A) (A) (A) (A)
                 (A) (A) (A) (A) (A) (A) (A) (A) (A) (A) (A) (A)
                 (A) (A) (A) (A) (A) (A) (A) (A) (A) (A) (A) (A)
                 (A) (A) (A) (A) (A) (A) (A) (A) (A) (A) (A) (A)
                 (A) (A) (A) (A) (A) (A) (A) (A) (A) (A) (A) (A)
                 (A) (A) (A) (A) (A) (A) (A) (A) (A) (A) (A) (A)
                 (A) (A) (A) (A) (A) (A) (A) (A) (A) (A) (A) (A)
                 (A) (A) (A) (A) (A) (A) (A) (A) (A) (A) (A) (A)
                 (A) (A) (A) (A) (A) (A) (A) (A) (A) (A) (A) (A)
                 (A) (A) (A) (A) (A) (A) (A) (A) (A) (A) (A) (A)
                 (A) (A) (A) (A) (A) (A) (A) (A) (A) (A) (A) (A)
                 (A) (A) (A) (A) (A) (A) (A) (A) (A) (A) (A) (A)
                 (A) (A) (A) (A) (A) (A) (A) (A) (A) (A) (A) (A)
                 (A) (A) (A) (A) (A)
 The electronic state is 1-A.
 Alpha  occ. eigenvalues --  -10.19572 -10.19534 -10.19104 -10.19104 -10.18931
 Alpha  occ. eigenvalues --  -10.18930 -10.18727 -10.18727 -10.17871 -10.17832
 Alpha  occ. eigenvalues --  -10.17831 -10.17801 -10.17757 -10.17757 -10.17650
 Alpha  occ. eigenvalues --  -10.17649 -10.17572 -10.17572 -10.17495 -10.17495
 Alpha  occ. eigenvalues --  -10.17430 -10.17429  -0.90198  -0.88009  -0.85850
 Alpha  occ. eigenvalues --   -0.83058  -0.80589  -0.79373  -0.76846  -0.75487
 Alpha  occ. eigenvalues --   -0.74365  -0.72688  -0.71885  -0.64781  -0.64383
 Alpha  occ. eigenvalues --   -0.62148  -0.61721  -0.61635  -0.58462  -0.55906
 Alpha  occ. eigenvalues --   -0.53748  -0.53307  -0.50795  -0.50521  -0.49820
 Alpha  occ. eigenvalues --   -0.47283  -0.46926  -0.45789  -0.43950  -0.43938
 Alpha  occ. eigenvalues --   -0.43899  -0.43190  -0.42651  -0.42192  -0.41008
 Alpha  occ. eigenvalues --   -0.40594  -0.39901  -0.39335  -0.37517  -0.37099
 Alpha  occ. eigenvalues --   -0.36929  -0.35517  -0.35113  -0.33989  -0.33362
 Alpha  occ. eigenvalues --   -0.32907  -0.30622  -0.29580  -0.28503  -0.26088
 Alpha  occ. eigenvalues --   -0.23818  -0.22006  -0.21539
 Alpha virt. eigenvalues --   -0.06014  -0.05884  -0.03306  -0.01178   0.01104
 Alpha virt. eigenvalues --    0.02573   0.04083   0.05006   0.05533   0.05677
 Alpha virt. eigenvalues --    0.06770   0.07508   0.08657   0.08863   0.09202
 Alpha virt. eigenvalues --    0.10347   0.11010   0.11753   0.12031   0.13432
 Alpha virt. eigenvalues --    0.13998   0.14903   0.16580   0.17157   0.19225
 Alpha virt. eigenvalues --    0.20194   0.22879   0.24175   0.24602   0.24836
 Alpha virt. eigenvalues --    0.25684   0.26251   0.28079   0.28148   0.28454
 Alpha virt. eigenvalues --    0.28648   0.29230   0.30233   0.30541   0.31432
 Alpha virt. eigenvalues --    0.33182   0.33458   0.34460   0.36273   0.37028
 Alpha virt. eigenvalues --    0.37059   0.37627   0.37783   0.38221   0.38305
 Alpha virt. eigenvalues --    0.38930   0.39003   0.39610   0.40436   0.40544
 Alpha virt. eigenvalues --    0.41334   0.42020   0.42242   0.42526   0.43041
 Alpha virt. eigenvalues --    0.43555   0.43785   0.44075   0.44205   0.45741
 Alpha virt. eigenvalues --    0.45793   0.46177   0.46705   0.47065   0.47356
 Alpha virt. eigenvalues --    0.47675   0.48417   0.48925   0.49316   0.50823
 Alpha virt. eigenvalues --    0.51751   0.52151   0.52483   0.52582   0.53000
 Alpha virt. eigenvalues --    0.53596   0.53855   0.54834   0.56523   0.57833
 Alpha virt. eigenvalues --    0.58273   0.58891   0.60370   0.60874   0.60911
 Alpha virt. eigenvalues --    0.61321   0.61998   0.62392   0.62548   0.63352
 Alpha virt. eigenvalues --    0.64248   0.65212   0.65595   0.66517   0.67163
 Alpha virt. eigenvalues --    0.67820   0.67865   0.69216   0.69449   0.70490
 Alpha virt. eigenvalues --    0.72736   0.73282   0.73802   0.74332   0.75461
 Alpha virt. eigenvalues --    0.75604   0.75867   0.76409   0.77613   0.78309
 Alpha virt. eigenvalues --    0.79566   0.80550   0.80571   0.81392   0.81438
 Alpha virt. eigenvalues --    0.82909   0.83948   0.83978   0.84636   0.86255
 Alpha virt. eigenvalues --    0.87030   0.87160   0.87726   0.89012   0.89603
 Alpha virt. eigenvalues --    0.90017   0.92291   0.92901   0.93016   0.94625
 Alpha virt. eigenvalues --    0.96587   0.97323   0.98682   0.98924   0.99741
 Alpha virt. eigenvalues --    1.00874   1.01248   1.02508   1.05556   1.06548
 Alpha virt. eigenvalues --    1.07148   1.07409   1.07740   1.09630   1.10994
 Alpha virt. eigenvalues --    1.11930   1.14283   1.15988   1.16102   1.18325
 Alpha virt. eigenvalues --    1.18723   1.19068   1.21163   1.21369   1.21903
 Alpha virt. eigenvalues --    1.23850   1.24038   1.25085   1.27666   1.27736
 Alpha virt. eigenvalues --    1.30233   1.30568   1.31115   1.33590   1.34465
 Alpha virt. eigenvalues --    1.34637   1.36872   1.38701   1.41906   1.42078
 Alpha virt. eigenvalues --    1.43866   1.43983   1.46350   1.47088   1.47579
 Alpha virt. eigenvalues --    1.48216   1.48714   1.49286   1.50459   1.52147
 Alpha virt. eigenvalues --    1.52327   1.55158   1.55580   1.57601   1.57726
 Alpha virt. eigenvalues --    1.60197   1.63280   1.63921   1.66169   1.66528
 Alpha virt. eigenvalues --    1.68350   1.69740   1.71907   1.72187   1.75873
 Alpha virt. eigenvalues --    1.76364   1.77304   1.78821   1.79139   1.79686
 Alpha virt. eigenvalues --    1.82109   1.82536   1.83343   1.83803   1.84575
 Alpha virt. eigenvalues --    1.85383   1.86376   1.87775   1.88293   1.89091
 Alpha virt. eigenvalues --    1.90483   1.91294   1.92710   1.92748   1.93921
 Alpha virt. eigenvalues --    1.95284   1.95702   1.97595   1.97639   1.98926
 Alpha virt. eigenvalues --    1.99784   2.01244   2.01511   2.03211   2.04379
 Alpha virt. eigenvalues --    2.05031   2.06428   2.11091   2.12479   2.16690
 Alpha virt. eigenvalues --    2.17166   2.17913   2.21147   2.21344   2.23036
 Alpha virt. eigenvalues --    2.25059   2.26360   2.28363   2.28516   2.30314
 Alpha virt. eigenvalues --    2.32710   2.32783   2.33320   2.35253   2.35647
 Alpha virt. eigenvalues --    2.37805   2.38145   2.39578   2.39654   2.41263
 Alpha virt. eigenvalues --    2.42096   2.42198   2.42730   2.48277   2.52288
 Alpha virt. eigenvalues --    2.53966   2.54680   2.56271   2.57234   2.57559
 Alpha virt. eigenvalues --    2.59207   2.60639   2.61543   2.62910   2.66933
 Alpha virt. eigenvalues --    2.69107   2.69953   2.72509   2.73497   2.73837
 Alpha virt. eigenvalues --    2.75015   2.76472   2.76725   2.78543   2.78636
 Alpha virt. eigenvalues --    2.82087   2.83714   2.86492   2.87120   2.89426
 Alpha virt. eigenvalues --    2.90144   2.92533   2.94358   2.97257   3.00510
 Alpha virt. eigenvalues --    3.04188   3.06773   3.09120   3.09417   3.15389
 Alpha virt. eigenvalues --    3.15664   3.17640   3.19237   3.19821   3.22126
 Alpha virt. eigenvalues --    3.23426   3.24845   3.25691   3.26788   3.27253
 Alpha virt. eigenvalues --    3.27741   3.27751   3.30452   3.30550   3.31684
 Alpha virt. eigenvalues --    3.32990   3.34736   3.35145   3.36392   3.37052
 Alpha virt. eigenvalues --    3.39266   3.44709   3.46272   3.46836   3.47307
 Alpha virt. eigenvalues --    3.48458   3.49180   3.50936   3.55853   3.59759
 Alpha virt. eigenvalues --    3.60028   3.63499   3.67821   3.77469   3.78051
 Alpha virt. eigenvalues --    3.82945   3.87884   3.97338   3.97606   4.06733
 Alpha virt. eigenvalues --    4.17891   4.31996   4.54965   4.73029   4.73157
 Alpha virt. eigenvalues --    4.74428   4.78097   4.80526  23.14994  23.30012
 Alpha virt. eigenvalues --   23.45819  23.58820  23.66429  23.79378  23.80904
 Alpha virt. eigenvalues --   23.84562  23.88026  23.90131  23.90393  24.01207
 Alpha virt. eigenvalues --   24.01307  24.01500  24.01527  24.08107  24.08511
 Alpha virt. eigenvalues --   24.16040  24.16172  24.16388  24.17225  24.17752
          Condensed to atoms (all electrons):
               1          2          3          4          5          6
     1  C    5.092329   0.484704  -0.067930   0.553280  -0.065018  -0.026138
     2  C    0.484704   5.014221   0.429335  -0.034219   0.507285  -0.080243
     3  C   -0.067930   0.429335   5.005566   0.006885  -0.036972   0.419451
     4  C    0.553280  -0.034219   0.006885   4.951395  -0.037414   0.000598
     5  C   -0.065018   0.507285  -0.036972  -0.037414   4.810549   0.011508
     6  C   -0.026138  -0.080243   0.419451   0.000598   0.011508   5.005568
     7  C    0.008146  -0.052371   0.514215  -0.000247  -0.042406  -0.042367
     8  C   -0.050916  -0.036780   0.000063   0.492519  -0.037920   0.000024
     9  C   -0.046371  -0.047072   0.011145  -0.048943   0.489214  -0.000223
    10  C   -0.000228   0.011078  -0.042360   0.000007  -0.000225   0.514215
    11  C    0.010415  -0.054623  -0.040684  -0.000059   0.457138  -0.000908
    12  C   -0.000041  -0.013870  -0.080244   0.000044   0.000736   0.429314
    13  C   -0.000481  -0.047514  -0.046609   0.000080  -0.035460   0.013438
    14  C   -0.000174   0.014276  -0.047625  -0.000003   0.000132  -0.049261
    15  C   -0.000020  -0.001125  -0.049263  -0.000000   0.000076  -0.047626
    16  C    0.000737   0.000736   0.011510  -0.000040   0.000001  -0.036969
    17  C    0.000010  -0.000076   0.013439  -0.000001  -0.000003  -0.046610
    18  C   -0.000034   0.000023  -0.000907  -0.000001   0.000001  -0.040685
    19  C   -0.033852  -0.000043  -0.026127  -0.000593   0.000736  -0.067938
    20  C   -0.000084  -0.000024  -0.000223   0.000001  -0.000000   0.011144
    21  C   -0.000596   0.000045   0.000597   0.000173  -0.000040   0.006887
    22  C    0.000268   0.000002   0.000024  -0.000012  -0.000000   0.000063
    23  H    0.396516  -0.045528  -0.008084  -0.036942   0.005399  -0.001561
    24  H   -0.041439   0.005791  -0.000458   0.399650   0.000270  -0.000027
    25  H    0.006634   0.000015   0.000035  -0.044791   0.006337  -0.000001
    26  H   -0.000150   0.006315  -0.000446   0.006309  -0.048590   0.000012
    27  H   -0.000448   0.006323   0.000291   0.000033  -0.049178   0.000055
    28  H    0.000059   0.000602   0.005528   0.000000   0.005898  -0.000473
    29  H    0.000014  -0.000448   0.005839  -0.000000   0.000005   0.000480
    30  H   -0.000001   0.000050   0.000481   0.000000   0.000000   0.005839
    31  H   -0.000001   0.000016  -0.000473   0.000000  -0.000000   0.005529
    32  H    0.000001  -0.000002   0.000055   0.000000   0.000000   0.000291
    33  H   -0.003193   0.002639  -0.001556  -0.001558   0.000491  -0.008089
    34  H   -0.000002  -0.000001   0.000012  -0.000000   0.000000  -0.000446
    35  H    0.000205   0.000017  -0.000027   0.000143   0.000004  -0.000458
    36  H    0.000009   0.000000  -0.000001   0.000000  -0.000000   0.000035
               7          8          9         10         11         12
     1  C    0.008146  -0.050916  -0.046371  -0.000228   0.010415  -0.000041
     2  C   -0.052371  -0.036780  -0.047072   0.011078  -0.054623  -0.013870
     3  C    0.514215   0.000063   0.011145  -0.042360  -0.040684  -0.080244
     4  C   -0.000247   0.492519  -0.048943   0.000007  -0.000059   0.000044
     5  C   -0.042406  -0.037920   0.489214  -0.000225   0.457138   0.000736
     6  C   -0.042367   0.000024  -0.000223   0.514215  -0.000908   0.429314
     7  C    4.852727   0.000027   0.000476  -0.046594  -0.038522   0.011079
     8  C    0.000027   4.948439   0.557300  -0.000000   0.006092   0.000002
     9  C    0.000476   0.557300   5.020264  -0.000001  -0.066987  -0.000024
    10  C   -0.046594  -0.000000  -0.000001   4.852733   0.000081  -0.052374
    11  C   -0.038522   0.006092  -0.066987   0.000081   5.001122   0.000024
    12  C    0.011079   0.000002  -0.000024  -0.052374   0.000024   5.014332
    13  C    0.449170  -0.000265   0.005076   0.000056   0.589630  -0.000076
    14  C    0.461699   0.000001  -0.000013  -0.034206   0.006364  -0.001125
    15  C   -0.034207  -0.000000   0.000002   0.461695  -0.000358   0.014278
    16  C   -0.000225  -0.000000  -0.000000  -0.042410   0.000001   0.507251
    17  C    0.000056  -0.000000  -0.000000   0.449166   0.000001  -0.047519
    18  C    0.000081   0.000000  -0.000000  -0.038523  -0.000000  -0.054623
    19  C   -0.000227   0.000268  -0.000084   0.008145  -0.000034   0.484709
    20  C   -0.000001  -0.000000   0.000000   0.000477  -0.000000  -0.047070
    21  C    0.000007  -0.000012   0.000001  -0.000247  -0.000001  -0.034225
    22  C   -0.000000  -0.000000  -0.000000   0.000027   0.000000  -0.036785
    23  H   -0.000211   0.005991  -0.000228  -0.000093  -0.000314   0.002639
    24  H    0.000008  -0.044470   0.006236  -0.000001   0.000041   0.000017
    25  H    0.000001   0.401278  -0.043669   0.000000  -0.000439   0.000000
    26  H    0.000038  -0.041045   0.394551  -0.000000  -0.004278  -0.000001
    27  H    0.006176   0.000344  -0.003053  -0.000001   0.395375  -0.000002
    28  H   -0.049138   0.000009  -0.000492   0.000006  -0.039512   0.000016
    29  H   -0.049429   0.000000  -0.000002   0.006057   0.000556   0.000050
    30  H    0.006057  -0.000000   0.000000  -0.049429   0.000008  -0.000448
    31  H    0.000006   0.000000   0.000000  -0.049137   0.000000   0.000601
    32  H   -0.000001  -0.000000   0.000000   0.006177  -0.000000   0.006323
    33  H   -0.000093   0.000194   0.000121  -0.000211   0.000036  -0.045529
    34  H   -0.000000   0.000000  -0.000000   0.000038  -0.000000   0.006315
    35  H   -0.000001  -0.000001  -0.000005   0.000008  -0.000000   0.005790
    36  H    0.000000  -0.000000  -0.000000   0.000001  -0.000000   0.000015
              13         14         15         16         17         18
     1  C   -0.000481  -0.000174  -0.000020   0.000737   0.000010  -0.000034
     2  C   -0.047514   0.014276  -0.001125   0.000736  -0.000076   0.000023
     3  C   -0.046609  -0.047625  -0.049263   0.011510   0.013439  -0.000907
     4  C    0.000080  -0.000003  -0.000000  -0.000040  -0.000001  -0.000001
     5  C   -0.035460   0.000132   0.000076   0.000001  -0.000003   0.000001
     6  C    0.013438  -0.049261  -0.047626  -0.036969  -0.046610  -0.040685
     7  C    0.449170   0.461699  -0.034207  -0.000225   0.000056   0.000081
     8  C   -0.000265   0.000001  -0.000000  -0.000000  -0.000000   0.000000
     9  C    0.005076  -0.000013   0.000002  -0.000000  -0.000000  -0.000000
    10  C    0.000056  -0.034206   0.461695  -0.042410   0.449166  -0.038523
    11  C    0.589630   0.006364  -0.000358   0.000001   0.000001  -0.000000
    12  C   -0.000076  -0.001125   0.014278   0.507251  -0.047519  -0.054623
    13  C    5.014729  -0.067796   0.006332  -0.000003  -0.000015   0.000001
    14  C   -0.067796   5.009454   0.577755   0.000076   0.006332  -0.000358
    15  C    0.006332   0.577755   5.009443   0.000131  -0.067796   0.006364
    16  C   -0.000003   0.000076   0.000131   4.810542  -0.035453   0.457133
    17  C   -0.000015   0.006332  -0.067796  -0.035453   5.014730   0.589642
    18  C    0.000001  -0.000358   0.006364   0.457133   0.589642   5.001109
    19  C    0.000010  -0.000020  -0.000174  -0.065009  -0.000481   0.010415
    20  C   -0.000000   0.000002  -0.000013   0.489229   0.005075  -0.066984
    21  C   -0.000001  -0.000000  -0.000003  -0.037417   0.000080  -0.000060
    22  C   -0.000000  -0.000000   0.000001  -0.037920  -0.000265   0.006091
    23  H    0.000014  -0.000003   0.000023   0.000492  -0.000060   0.000036
    24  H   -0.000000  -0.000000  -0.000000   0.000004   0.000000  -0.000000
    25  H    0.000006   0.000000  -0.000000  -0.000000   0.000000  -0.000000
    26  H    0.000530  -0.000001   0.000000   0.000000   0.000000  -0.000000
    27  H   -0.040444  -0.000470   0.000009   0.000000   0.000000  -0.000000
    28  H    0.394712  -0.003609   0.000570  -0.000000  -0.000001   0.000000
    29  H   -0.003377   0.395858  -0.040410   0.000000  -0.000475   0.000008
    30  H   -0.000475  -0.040409   0.395858   0.000005  -0.003377   0.000556
    31  H   -0.000001   0.000570  -0.003609   0.005898   0.394711  -0.039512
    32  H    0.000000   0.000009  -0.000470  -0.049179  -0.040446   0.395374
    33  H   -0.000060   0.000023  -0.000003   0.005400   0.000014  -0.000314
    34  H    0.000000   0.000000  -0.000001  -0.048586   0.000530  -0.004278
    35  H    0.000000  -0.000000  -0.000000   0.000270  -0.000000   0.000041
    36  H    0.000000  -0.000000   0.000000   0.006337   0.000006  -0.000439
              19         20         21         22         23         24
     1  C   -0.033852  -0.000084  -0.000596   0.000268   0.396516  -0.041439
     2  C   -0.000043  -0.000024   0.000045   0.000002  -0.045528   0.005791
     3  C   -0.026127  -0.000223   0.000597   0.000024  -0.008084  -0.000458
     4  C   -0.000593   0.000001   0.000173  -0.000012  -0.036942   0.399650
     5  C    0.000736  -0.000000  -0.000040  -0.000000   0.005399   0.000270
     6  C   -0.067938   0.011144   0.006887   0.000063  -0.001561  -0.000027
     7  C   -0.000227  -0.000001   0.000007  -0.000000  -0.000211   0.000008
     8  C    0.000268  -0.000000  -0.000012  -0.000000   0.005991  -0.044470
     9  C   -0.000084   0.000000   0.000001  -0.000000  -0.000228   0.006236
    10  C    0.008145   0.000477  -0.000247   0.000027  -0.000093  -0.000001
    11  C   -0.000034  -0.000000  -0.000001   0.000000  -0.000314   0.000041
    12  C    0.484709  -0.047070  -0.034225  -0.036785   0.002639   0.000017
    13  C    0.000010  -0.000000  -0.000001  -0.000000   0.000014  -0.000000
    14  C   -0.000020   0.000002  -0.000000  -0.000000  -0.000003  -0.000000
    15  C   -0.000174  -0.000013  -0.000003   0.000001   0.000023  -0.000000
    16  C   -0.065009   0.489229  -0.037417  -0.037920   0.000492   0.000004
    17  C   -0.000481   0.005075   0.000080  -0.000265  -0.000060   0.000000
    18  C    0.010415  -0.066984  -0.000060   0.006091   0.000036  -0.000000
    19  C    5.092323  -0.046370   0.553264  -0.050916  -0.003199   0.000206
    20  C   -0.046370   5.020251  -0.048941   0.557287   0.000122  -0.000005
    21  C    0.553264  -0.048941   4.951393   0.492532  -0.001559   0.000143
    22  C   -0.050916   0.557287   0.492532   4.948447   0.000195  -0.000001
    23  H   -0.003199   0.000122  -0.001559   0.000195   0.456233  -0.006845
    24  H    0.000206  -0.000005   0.000143  -0.000001  -0.006845   0.482734
    25  H    0.000008  -0.000000   0.000000  -0.000000  -0.000354  -0.005775
    26  H   -0.000002  -0.000000  -0.000000   0.000000   0.000086  -0.000376
    27  H    0.000001   0.000000   0.000000  -0.000000   0.000017  -0.000002
    28  H   -0.000001   0.000000   0.000000   0.000000  -0.000001   0.000000
    29  H   -0.000001   0.000000   0.000000  -0.000000   0.000000   0.000000
    30  H    0.000014  -0.000002  -0.000000   0.000000  -0.000000  -0.000000
    31  H    0.000059  -0.000492   0.000000   0.000009  -0.000001  -0.000000
    32  H   -0.000448  -0.003052   0.000033   0.000344  -0.000001   0.000000
    33  H    0.396523  -0.000228  -0.036944   0.005991   0.000519  -0.000037
    34  H   -0.000150   0.394551   0.006309  -0.041046   0.000003  -0.000000
    35  H   -0.041439   0.006236   0.399650  -0.044470  -0.000037   0.000002
    36  H    0.006635  -0.043670  -0.044791   0.401277   0.000005   0.000000
              25         26         27         28         29         30
     1  C    0.006634  -0.000150  -0.000448   0.000059   0.000014  -0.000001
     2  C    0.000015   0.006315   0.006323   0.000602  -0.000448   0.000050
     3  C    0.000035  -0.000446   0.000291   0.005528   0.005839   0.000481
     4  C   -0.044791   0.006309   0.000033   0.000000  -0.000000   0.000000
     5  C    0.006337  -0.048590  -0.049178   0.005898   0.000005   0.000000
     6  C   -0.000001   0.000012   0.000055  -0.000473   0.000480   0.005839
     7  C    0.000001   0.000038   0.006176  -0.049138  -0.049429   0.006057
     8  C    0.401278  -0.041045   0.000344   0.000009   0.000000  -0.000000
     9  C   -0.043669   0.394551  -0.003053  -0.000492  -0.000002   0.000000
    10  C    0.000000  -0.000000  -0.000001   0.000006   0.006057  -0.049429
    11  C   -0.000439  -0.004278   0.395375  -0.039512   0.000556   0.000008
    12  C    0.000000  -0.000001  -0.000002   0.000016   0.000050  -0.000448
    13  C    0.000006   0.000530  -0.040444   0.394712  -0.003377  -0.000475
    14  C    0.000000  -0.000001  -0.000470  -0.003609   0.395858  -0.040409
    15  C   -0.000000   0.000000   0.000009   0.000570  -0.040410   0.395858
    16  C   -0.000000   0.000000   0.000000  -0.000000   0.000000   0.000005
    17  C    0.000000   0.000000   0.000000  -0.000001  -0.000475  -0.003377
    18  C   -0.000000  -0.000000  -0.000000   0.000000   0.000008   0.000556
    19  C    0.000008  -0.000002   0.000001  -0.000001  -0.000001   0.000014
    20  C   -0.000000  -0.000000   0.000000   0.000000   0.000000  -0.000002
    21  C    0.000000  -0.000000   0.000000   0.000000   0.000000  -0.000000
    22  C   -0.000000   0.000000  -0.000000   0.000000  -0.000000   0.000000
    23  H   -0.000354   0.000086   0.000017  -0.000001   0.000000  -0.000000
    24  H   -0.005775  -0.000376  -0.000002   0.000000   0.000000  -0.000000
    25  H    0.483275  -0.006822  -0.000032  -0.000001  -0.000000   0.000000
    26  H   -0.006822   0.484562   0.004258  -0.000036   0.000000  -0.000000
    27  H   -0.000032   0.004258   0.482698  -0.007133  -0.000038  -0.000001
    28  H   -0.000001  -0.000036  -0.007133   0.481671   0.004022  -0.000033
    29  H   -0.000000   0.000000  -0.000038   0.004022   0.480867  -0.006723
    30  H    0.000000  -0.000000  -0.000001  -0.000033  -0.006723   0.480865
    31  H    0.000000  -0.000000  -0.000000  -0.000000  -0.000033   0.004022
    32  H   -0.000000   0.000000   0.000000  -0.000000  -0.000001  -0.000038
    33  H    0.000005   0.000003  -0.000001  -0.000001  -0.000000   0.000000
    34  H   -0.000000   0.000000   0.000000  -0.000000  -0.000000   0.000000
    35  H    0.000000  -0.000000   0.000000  -0.000000  -0.000000   0.000000
    36  H   -0.000000  -0.000000  -0.000000   0.000000   0.000000  -0.000000
              31         32         33         34         35         36
     1  C   -0.000001   0.000001  -0.003193  -0.000002   0.000205   0.000009
     2  C    0.000016  -0.000002   0.002639  -0.000001   0.000017   0.000000
     3  C   -0.000473   0.000055  -0.001556   0.000012  -0.000027  -0.000001
     4  C    0.000000   0.000000  -0.001558  -0.000000   0.000143   0.000000
     5  C   -0.000000   0.000000   0.000491   0.000000   0.000004  -0.000000
     6  C    0.005529   0.000291  -0.008089  -0.000446  -0.000458   0.000035
     7  C    0.000006  -0.000001  -0.000093  -0.000000  -0.000001   0.000000
     8  C    0.000000  -0.000000   0.000194   0.000000  -0.000001  -0.000000
     9  C    0.000000   0.000000   0.000121  -0.000000  -0.000005  -0.000000
    10  C   -0.049137   0.006177  -0.000211   0.000038   0.000008   0.000001
    11  C    0.000000  -0.000000   0.000036  -0.000000  -0.000000  -0.000000
    12  C    0.000601   0.006323  -0.045529   0.006315   0.005790   0.000015
    13  C   -0.000001   0.000000  -0.000060   0.000000   0.000000   0.000000
    14  C    0.000570   0.000009   0.000023   0.000000  -0.000000  -0.000000
    15  C   -0.003609  -0.000470  -0.000003  -0.000001  -0.000000   0.000000
    16  C    0.005898  -0.049179   0.005400  -0.048586   0.000270   0.006337
    17  C    0.394711  -0.040446   0.000014   0.000530  -0.000000   0.000006
    18  C   -0.039512   0.395374  -0.000314  -0.004278   0.000041  -0.000439
    19  C    0.000059  -0.000448   0.396523  -0.000150  -0.041439   0.006635
    20  C   -0.000492  -0.003052  -0.000228   0.394551   0.006236  -0.043670
    21  C    0.000000   0.000033  -0.036944   0.006309   0.399650  -0.044791
    22  C    0.000009   0.000344   0.005991  -0.041046  -0.044470   0.401277
    23  H   -0.000001  -0.000001   0.000519   0.000003  -0.000037   0.000005
    24  H   -0.000000   0.000000  -0.000037  -0.000000   0.000002   0.000000
    25  H    0.000000  -0.000000   0.000005  -0.000000   0.000000  -0.000000
    26  H   -0.000000   0.000000   0.000003   0.000000  -0.000000  -0.000000
    27  H   -0.000000   0.000000  -0.000001   0.000000   0.000000  -0.000000
    28  H   -0.000000  -0.000000  -0.000001  -0.000000  -0.000000   0.000000
    29  H   -0.000033  -0.000001  -0.000000  -0.000000  -0.000000   0.000000
    30  H    0.004022  -0.000038   0.000000   0.000000   0.000000  -0.000000
    31  H    0.481673  -0.007135  -0.000001  -0.000036   0.000000  -0.000001
    32  H   -0.007135   0.482703   0.000017   0.004258  -0.000002  -0.000032
    33  H   -0.000001   0.000017   0.456233   0.000086  -0.006844  -0.000354
    34  H   -0.000036   0.004258   0.000086   0.484558  -0.000376  -0.006822
    35  H    0.000000  -0.000002  -0.006844  -0.000376   0.482730  -0.005776
    36  H   -0.000001  -0.000032  -0.000354  -0.006822  -0.005776   0.483280
 Mulliken charges:
               1
     1  C   -0.216209
     2  C   -0.069533
     3  C    0.025521
     4  C   -0.206294
     5  C    0.057448
     6  C    0.025574
     7  C    0.046071
     8  C   -0.201139
     9  C   -0.227219
    10  C    0.046071
    11  C   -0.220164
    12  C   -0.069581
    13  C   -0.231207
    14  C   -0.227477
    15  C   -0.227458
    16  C    0.057458
    17  C   -0.231214
    18  C   -0.220158
    19  C   -0.216207
    20  C   -0.227214
    21  C   -0.206278
    22  C   -0.201141
    23  H    0.236733
    24  H    0.204336
    25  H    0.204288
    26  H    0.205081
    27  H    0.205222
    28  H    0.207339
    29  H    0.207181
    30  H    0.207183
    31  H    0.207338
    32  H    0.205220
    33  H    0.236721
    34  H    0.205084
    35  H    0.204339
    36  H    0.204285
 Sum of Mulliken charges =  -0.00000
 Mulliken charges with hydrogens summed into heavy atoms:
               1
     1  C    0.020524
     2  C   -0.069533
     3  C    0.025521
     4  C   -0.001958
     5  C    0.057448
     6  C    0.025574
     7  C    0.046071
     8  C    0.003150
     9  C   -0.022138
    10  C    0.046071
    11  C   -0.014942
    12  C   -0.069581
    13  C   -0.023868
    14  C   -0.020296
    15  C   -0.020275
    16  C    0.057458
    17  C   -0.023876
    18  C   -0.014938
    19  C    0.020513
    20  C   -0.022131
    21  C   -0.001939
    22  C    0.003144
 APT charges:
               1
     1  C   -0.072404
     2  C    0.020150
     3  C    0.044855
     4  C   -0.034098
     5  C   -0.010722
     6  C    0.044866
     7  C   -0.038054
     8  C   -0.042626
     9  C    0.000282
    10  C   -0.038068
    11  C   -0.026404
    12  C    0.020136
    13  C    0.004964
    14  C   -0.014921
    15  C   -0.014901
    16  C   -0.010712
    17  C    0.004983
    18  C   -0.026398
    19  C   -0.072394
    20  C    0.000262
    21  C   -0.034100
    22  C   -0.042616
    23  H    0.055288
    24  H    0.024773
    25  H    0.018185
    26  H    0.017129
    27  H    0.016714
    28  H    0.016495
    29  H    0.020378
    30  H    0.020383
    31  H    0.016491
    32  H    0.016705
    33  H    0.055289
    34  H    0.017134
    35  H    0.024777
    36  H    0.018178
 Sum of APT charges =  -0.00000
 APT charges with hydrogens summed into heavy atoms:
               1
     1  C   -0.017117
     2  C    0.020150
     3  C    0.044855
     4  C   -0.009324
     5  C   -0.010722
     6  C    0.044866
     7  C   -0.038054
     8  C   -0.024441
     9  C    0.017411
    10  C   -0.038068
    11  C   -0.009690
    12  C    0.020136
    13  C    0.021460
    14  C    0.005457
    15  C    0.005481
    16  C   -0.010712
    17  C    0.021474
    18  C   -0.009693
    19  C   -0.017105
    20  C    0.017396
    21  C   -0.009323
    22  C   -0.024437
 Electronic spatial extent (au):  <R**2>=           5743.4208
 Charge=             -0.0000 electrons
 Dipole moment (field-independent basis, Debye):
    X=             -0.0002    Y=              0.0950    Z=              0.0002  Tot=              0.0950
 Quadrupole moment (field-independent basis, Debye-Ang):
   XX=           -109.1359   YY=           -109.6283   ZZ=           -131.8867
   XY=              0.0005   XZ=              5.4976   YZ=              0.0001
 Traceless Quadrupole moment (field-independent basis, Debye-Ang):
   XX=              7.7477   YY=              7.2554   ZZ=            -15.0031
   XY=              0.0005   XZ=              5.4976   YZ=              0.0001
 Octapole moment (field-independent basis, Debye-Ang**2):
  XXX=             -0.0002  YYY=             14.2322  ZZZ=              0.0027  XYY=             -0.0021
  XXY=             -8.2272  XXZ=             -0.0015  XZZ=             -0.0009  YZZ=             -8.8220
  YYZ=              0.0009  XYZ=             18.7898
 Hexadecapole moment (field-independent basis, Debye-Ang**3):
 XXXX=          -4220.6599 YYYY=          -2648.7609 ZZZZ=           -472.2621 XXXY=              0.0053
 XXXZ=            133.4820 YYYX=              0.0007 YYYZ=              0.0107 ZZZX=              5.6009
 ZZZY=             -0.0062 XXYY=          -1129.9996 XXZZ=           -916.7540 YYZZ=           -566.4092
 XXYZ=              0.0034 YYXZ=             -9.2387 ZZXY=              0.0009
 N-N= 1.607871519418D+03 E-N=-5.181793321361D+03  KE= 8.437066957954D+02
  Exact polarizability: 428.989   0.005 409.882  38.945  -0.000 143.011
 Approx polarizability: 541.531   0.010 562.206  67.721  -0.002 206.272
 D2PCM: PCM CHGder 2nd derivatives, FixD1E=F FixD2E=F DoIter=F DoCFld=F I1PDM=0
 Calling FoFJK, ICntrl=    100127 FMM=F ISym2X=0 I1Cent= 0 IOpClX= 0 NMat=1 NMatS=1 NMatT=0.
 Full mass-weighted force constant matrix:
 Low frequencies ---  -35.1770  -28.3853  -27.3806    0.0002    0.0003    0.0005
 Low frequencies ---   50.7523   53.7073   81.8449
 Diagonal vibrational polarizability:
        8.7826754       6.8291832      25.5661368
 Harmonic frequencies (cm**-1), IR intensities (KM/Mole), Raman scattering
 activities (A**4/AMU), depolarization ratios for plane and unpolarized
 incident light, reduced masses (AMU), force constants (mDyne/A),
 and normal coordinates:
                      1                      2                      3
                      A                      A                      A
 Frequencies --     50.7075                53.6859                81.8033
 Red. masses --      4.9954                 4.3177                 4.9819
 Frc consts  --      0.0076                 0.0073                 0.0196
 IR Inten    --      0.0856                 0.4195                 0.1835
  Atom  AN      X      Y      Z        X      Y      Z        X      Y      Z
     1   6     0.02   0.02  -0.05     0.07   0.05  -0.15    -0.10   0.10  -0.11
     2   6     0.01  -0.02   0.01     0.01   0.01  -0.06    -0.06   0.03  -0.03
     3   6    -0.00  -0.03   0.04     0.00   0.00  -0.09    -0.01   0.05  -0.01
     4   6     0.06   0.07  -0.16     0.07   0.04  -0.10    -0.16   0.05  -0.10
     5   6     0.01  -0.01   0.02    -0.03  -0.03   0.09    -0.08  -0.05   0.04
     6   6     0.00  -0.03  -0.04     0.00  -0.00  -0.09     0.01   0.05   0.01
     7   6    -0.02  -0.04   0.11    -0.00  -0.00  -0.06     0.01   0.04   0.01
     8   6     0.07   0.08  -0.20     0.01  -0.01   0.07    -0.19  -0.05  -0.00
     9   6     0.04   0.04  -0.10    -0.04  -0.05   0.17    -0.15  -0.10   0.06
    10   6     0.02  -0.04  -0.11    -0.00   0.00  -0.06    -0.01   0.04  -0.01
    11   6    -0.03  -0.04   0.13    -0.06  -0.04   0.15    -0.05  -0.07   0.07
    12   6    -0.01  -0.02  -0.01     0.01  -0.01  -0.06     0.06   0.03   0.03
    13   6    -0.04  -0.05   0.18    -0.03  -0.02   0.05     0.00  -0.03   0.04
    14   6    -0.02  -0.04   0.06     0.01   0.00  -0.09     0.00   0.04   0.00
    15   6     0.02  -0.04  -0.06     0.01  -0.00  -0.09    -0.00   0.04  -0.00
    16   6    -0.01  -0.01  -0.02    -0.03   0.03   0.09     0.08  -0.05  -0.04
    17   6     0.04  -0.05  -0.18    -0.03   0.02   0.05    -0.00  -0.03  -0.04
    18   6     0.03  -0.04  -0.13    -0.06   0.04   0.15     0.05  -0.07  -0.07
    19   6    -0.02   0.02   0.05     0.07  -0.05  -0.16     0.10   0.10   0.11
    20   6    -0.04   0.04   0.10    -0.04   0.05   0.17     0.15  -0.10  -0.06
    21   6    -0.06   0.07   0.16     0.07  -0.04  -0.10     0.16   0.05   0.10
    22   6    -0.07   0.08   0.20     0.01   0.01   0.07     0.19  -0.05   0.00
    23   1     0.01   0.01  -0.02     0.10   0.09  -0.26    -0.08   0.19  -0.16
    24   1     0.07   0.10  -0.22     0.12   0.07  -0.17    -0.17   0.10  -0.16
    25   1     0.10   0.13  -0.30     0.01  -0.03   0.13    -0.24  -0.09   0.02
    26   1     0.04   0.04  -0.11    -0.08  -0.09   0.29    -0.16  -0.19   0.12
    27   1    -0.04  -0.04   0.16    -0.09  -0.06   0.26    -0.07  -0.12   0.12
    28   1    -0.06  -0.06   0.26    -0.04  -0.03   0.08     0.04  -0.05   0.06
    29   1    -0.04  -0.04   0.12     0.00   0.00  -0.09    -0.00   0.04   0.00
    30   1     0.04  -0.04  -0.12     0.00  -0.00  -0.09     0.00   0.04  -0.00
    31   1     0.06  -0.06  -0.26    -0.04   0.03   0.08    -0.04  -0.05  -0.06
    32   1     0.04  -0.04  -0.16    -0.09   0.06   0.26     0.07  -0.12  -0.12
    33   1    -0.01   0.01   0.02     0.10  -0.09  -0.26     0.08   0.19   0.16
    34   1    -0.04   0.04   0.11    -0.08   0.09   0.29     0.16  -0.19  -0.12
    35   1    -0.07   0.10   0.22     0.12  -0.07  -0.17     0.17   0.10   0.16
    36   1    -0.10   0.13   0.30     0.01   0.03   0.12     0.24  -0.09  -0.02
                      4                      5                      6
                      A                      A                      A
 Frequencies --    107.6490               157.9735               169.6522
 Red. masses --      4.5697                 4.4124                 4.2892
 Frc consts  --      0.0312                 0.0649                 0.0727
 IR Inten    --      2.3649                 0.0951                 2.7499
  Atom  AN      X      Y      Z        X      Y      Z        X      Y      Z
     1   6     0.04  -0.00  -0.09    -0.06  -0.01   0.07     0.02  -0.14   0.04
     2   6     0.03   0.03  -0.14    -0.01   0.03  -0.02    -0.01  -0.06  -0.07
     3   6     0.02   0.01  -0.11    -0.00   0.01   0.03    -0.02  -0.03  -0.12
     4   6     0.01  -0.06   0.06    -0.12  -0.07   0.15     0.06  -0.12   0.08
     5   6     0.02   0.02  -0.09     0.02   0.04  -0.11    -0.02  -0.02  -0.05
     6   6     0.02  -0.01  -0.11     0.00   0.01  -0.03    -0.02   0.03  -0.12
     7   6    -0.02   0.00   0.02    -0.03   0.00   0.13    -0.03  -0.05  -0.02
     8   6    -0.02  -0.08   0.15    -0.08  -0.04   0.04     0.10  -0.01  -0.04
     9   6    -0.01  -0.02   0.04    -0.00   0.03  -0.14     0.06   0.04  -0.09
    10   6    -0.02  -0.00   0.02     0.03   0.00  -0.13    -0.03   0.05  -0.02
    11   6     0.02   0.03  -0.10     0.01   0.01  -0.04    -0.07  -0.06   0.09
    12   6     0.03  -0.03  -0.14     0.01   0.03   0.02    -0.01   0.06  -0.07
    13   6    -0.01   0.01  -0.02    -0.04  -0.01   0.16    -0.08  -0.07   0.13
    14   6    -0.07  -0.01   0.23    -0.03   0.00   0.10    -0.01  -0.03  -0.02
    15   6    -0.07   0.01   0.23     0.03   0.00  -0.10    -0.01   0.03  -0.02
    16   6     0.02  -0.02  -0.09    -0.02   0.04   0.11    -0.02   0.02  -0.05
    17   6    -0.01  -0.01  -0.02     0.04  -0.01  -0.16    -0.08   0.07   0.13
    18   6     0.02  -0.03  -0.10    -0.01   0.01   0.04    -0.07   0.06   0.09
    19   6     0.04   0.00  -0.09     0.06  -0.01  -0.07     0.02   0.14   0.04
    20   6    -0.01   0.02   0.04     0.00   0.03   0.14     0.06  -0.04  -0.09
    21   6     0.01   0.06   0.06     0.12  -0.07  -0.15     0.06   0.12   0.08
    22   6    -0.02   0.08   0.15     0.08  -0.04  -0.04     0.10   0.01  -0.04
    23   1     0.06  -0.00  -0.14    -0.08  -0.01   0.11    -0.00  -0.24   0.09
    24   1     0.01  -0.11   0.13    -0.19  -0.12   0.28     0.07  -0.19   0.18
    25   1    -0.05  -0.13   0.29    -0.11  -0.07   0.08     0.15   0.03  -0.06
    26   1    -0.02  -0.03   0.09     0.03   0.05  -0.23     0.06   0.12  -0.13
    27   1     0.02   0.03  -0.12     0.02   0.01  -0.07    -0.10  -0.08   0.19
    28   1    -0.02   0.00   0.02    -0.06  -0.03   0.26    -0.12  -0.09   0.27
    29   1    -0.11  -0.02   0.38    -0.06   0.00   0.18     0.01  -0.05   0.02
    30   1    -0.11   0.02   0.38     0.06   0.00  -0.18     0.01   0.05   0.02
    31   1    -0.02  -0.00   0.02     0.06  -0.03  -0.26    -0.12   0.09   0.27
    32   1     0.02  -0.03  -0.12    -0.02   0.01   0.07    -0.10   0.08   0.19
    33   1     0.06   0.00  -0.14     0.08  -0.01  -0.11    -0.00   0.24   0.09
    34   1    -0.02   0.03   0.09    -0.03   0.05   0.23     0.06  -0.12  -0.13
    35   1     0.01   0.11   0.13     0.19  -0.12  -0.28     0.07   0.19   0.18
    36   1    -0.05   0.13   0.29     0.11  -0.07  -0.08     0.15  -0.03  -0.06
                      7                      8                      9
                      A                      A                      A
 Frequencies --    224.5779               241.8177               272.3939
 Red. masses --      4.4353                 4.5301                 4.4760
 Frc consts  --      0.1318                 0.1561                 0.1957
 IR Inten    --      2.6835                 0.1312                 0.9660
  Atom  AN      X      Y      Z        X      Y      Z        X      Y      Z
     1   6    -0.02   0.12  -0.04    -0.08  -0.05   0.17     0.03  -0.03  -0.12
     2   6     0.06   0.10  -0.07    -0.04  -0.02   0.11     0.00   0.02  -0.19
     3   6     0.05   0.05  -0.02    -0.01   0.03   0.00     0.00   0.02  -0.12
     4   6    -0.12   0.02   0.08    -0.08  -0.03   0.09     0.04  -0.07   0.04
     5   6     0.06   0.08  -0.09    -0.05  -0.04   0.10    -0.02   0.03  -0.10
     6   6     0.05  -0.05  -0.02     0.01   0.03  -0.00    -0.00   0.02   0.12
     7   6     0.03   0.05   0.03     0.03   0.04  -0.11     0.01   0.03  -0.14
     8   6    -0.11  -0.01   0.05    -0.01   0.05  -0.12     0.04  -0.01   0.04
     9   6     0.01   0.04  -0.10    -0.01   0.02  -0.08     0.02   0.05  -0.06
    10   6     0.03  -0.05   0.03    -0.03   0.04   0.11    -0.01   0.03   0.14
    11   6     0.03   0.03   0.07    -0.05  -0.04   0.13    -0.09  -0.03   0.13
    12   6     0.06  -0.10  -0.07     0.04  -0.02  -0.11    -0.00   0.02   0.19
    13   6     0.00   0.02   0.16     0.01  -0.00  -0.04    -0.05  -0.01   0.06
    14   6     0.04   0.03  -0.11     0.04   0.04  -0.11     0.03   0.04  -0.08
    15   6     0.04  -0.03  -0.11    -0.04   0.04   0.11    -0.03   0.04   0.08
    16   6     0.06  -0.08  -0.09     0.05  -0.04  -0.10     0.02   0.03   0.10
    17   6     0.00  -0.02   0.16    -0.01  -0.00   0.04     0.05  -0.01  -0.06
    18   6     0.03  -0.03   0.07     0.05  -0.04  -0.13     0.09  -0.03  -0.13
    19   6    -0.02  -0.12  -0.04     0.08  -0.05  -0.17    -0.03  -0.03   0.12
    20   6     0.01  -0.04  -0.10     0.01   0.02   0.08    -0.02   0.05   0.06
    21   6    -0.12  -0.02   0.08     0.08  -0.03  -0.09    -0.04  -0.07  -0.04
    22   6    -0.11   0.01   0.05     0.01   0.05   0.12    -0.04  -0.01  -0.04
    23   1    -0.01   0.18  -0.05    -0.09  -0.07   0.22     0.03  -0.08  -0.12
    24   1    -0.19  -0.02   0.18    -0.12  -0.03   0.13     0.05  -0.15   0.15
    25   1    -0.17  -0.07   0.13     0.03   0.12  -0.28     0.05  -0.03   0.15
    26   1     0.02  -0.01  -0.15     0.03   0.06  -0.20     0.00   0.09  -0.02
    27   1     0.00   0.01   0.15    -0.07  -0.07   0.21    -0.15  -0.10   0.35
    28   1    -0.04  -0.00   0.31     0.04  -0.01  -0.06    -0.08  -0.05   0.23
    29   1     0.02   0.06  -0.20     0.06   0.04  -0.20     0.05   0.03  -0.12
    30   1     0.02  -0.06  -0.20    -0.06   0.04   0.20    -0.05   0.03   0.12
    31   1    -0.04   0.00   0.31    -0.04  -0.01   0.06     0.08  -0.05  -0.23
    32   1     0.00  -0.01   0.15     0.07  -0.07  -0.21     0.15  -0.10  -0.35
    33   1    -0.01  -0.18  -0.05     0.09  -0.07  -0.22    -0.03  -0.08   0.12
    34   1     0.02   0.01  -0.15    -0.03   0.06   0.20    -0.00   0.09   0.02
    35   1    -0.19   0.02   0.18     0.12  -0.03  -0.13    -0.05  -0.15  -0.15
    36   1    -0.17   0.07   0.13    -0.03   0.12   0.28    -0.05  -0.03  -0.15
                     10                     11                     12
                      A                      A                      A
 Frequencies --    308.3188               342.2748               397.1206
 Red. masses --      4.3536                 5.2539                 4.8325
 Frc consts  --      0.2438                 0.3626                 0.4490
 IR Inten    --      2.2417                 0.0167                 2.7108
  Atom  AN      X      Y      Z        X      Y      Z        X      Y      Z
     1   6     0.04  -0.03  -0.09    -0.09  -0.15   0.00    -0.05   0.01  -0.09
     2   6    -0.05  -0.03  -0.01    -0.15  -0.07  -0.03    -0.10   0.02  -0.07
     3   6    -0.07  -0.05   0.16    -0.04  -0.00  -0.02    -0.05  -0.01   0.02
     4   6     0.08  -0.02  -0.04     0.04  -0.05  -0.03     0.00   0.02   0.08
     5   6    -0.02   0.01  -0.10    -0.19   0.01  -0.01    -0.13   0.06   0.01
     6   6    -0.07   0.05   0.16     0.04  -0.00   0.02    -0.05   0.01   0.02
     7   6    -0.05  -0.06   0.16    -0.08   0.01   0.05     0.08  -0.05  -0.01
     8   6     0.03  -0.05   0.09     0.04   0.07  -0.01     0.01   0.13   0.06
     9   6     0.00   0.01   0.00    -0.11   0.07   0.07    -0.05   0.17  -0.02
    10   6    -0.05   0.06   0.16     0.08   0.01  -0.05     0.08   0.05  -0.01
    11   6     0.01   0.00  -0.13    -0.16   0.02  -0.09    -0.02  -0.04   0.05
    12   6    -0.05   0.03  -0.01     0.15  -0.07   0.03    -0.10  -0.02  -0.07
    13   6    -0.04  -0.03   0.09    -0.10   0.04  -0.03     0.09  -0.00  -0.08
    14   6     0.04  -0.03  -0.10    -0.03   0.04   0.09     0.18  -0.02   0.05
    15   6     0.04   0.03  -0.10     0.03   0.04  -0.09     0.18   0.02   0.05
    16   6    -0.02  -0.01  -0.10     0.19   0.01   0.01    -0.13  -0.06   0.01
    17   6    -0.04   0.03   0.09     0.10   0.04   0.03     0.09   0.00  -0.08
    18   6     0.01  -0.00  -0.13     0.16   0.02   0.09    -0.02   0.04   0.05
    19   6     0.04   0.03  -0.09     0.09  -0.15  -0.00    -0.05  -0.01  -0.09
    20   6     0.00  -0.01   0.00     0.11   0.07  -0.07    -0.05  -0.17  -0.02
    21   6     0.08   0.02  -0.04    -0.04  -0.05   0.03     0.00  -0.02   0.08
    22   6     0.03   0.05   0.09    -0.04   0.07   0.01     0.01  -0.13   0.06
    23   1     0.06  -0.06  -0.13    -0.09  -0.27   0.01    -0.03  -0.03  -0.15
    24   1     0.13  -0.01  -0.08     0.14  -0.07  -0.06     0.06  -0.06   0.16
    25   1     0.02  -0.09   0.23     0.13   0.15  -0.03     0.06   0.16   0.08
    26   1    -0.02   0.05   0.05    -0.13   0.16   0.13    -0.04   0.29  -0.06
    27   1     0.05   0.02  -0.27    -0.13  -0.01  -0.20    -0.02  -0.18   0.07
    28   1    -0.05  -0.03   0.08    -0.06   0.04  -0.09     0.11   0.02  -0.18
    29   1     0.16  -0.04  -0.35    -0.02   0.01   0.17     0.23  -0.06   0.07
    30   1     0.16   0.04  -0.35     0.02   0.01  -0.17     0.23   0.06   0.07
    31   1    -0.05   0.03   0.08     0.06   0.04   0.09     0.11  -0.02  -0.18
    32   1     0.05  -0.02  -0.27     0.13  -0.01   0.20    -0.02   0.18   0.07
    33   1     0.06   0.06  -0.13     0.09  -0.27  -0.01    -0.03   0.03  -0.15
    34   1    -0.02  -0.05   0.05     0.13   0.16  -0.13    -0.04  -0.29  -0.06
    35   1     0.13   0.01  -0.08    -0.14  -0.07   0.06     0.06   0.06   0.16
    36   1     0.02   0.09   0.23    -0.13   0.15   0.03     0.06  -0.16   0.08
                     13                     14                     15
                      A                      A                      A
 Frequencies --    414.9312               421.4492               446.3424
 Red. masses --      3.9593                 5.3329                 3.6139
 Frc consts  --      0.4016                 0.5581                 0.4242
 IR Inten    --      4.1008                 2.5541                 0.0995
  Atom  AN      X      Y      Z        X      Y      Z        X      Y      Z
     1   6    -0.09  -0.07   0.12     0.03  -0.07   0.10     0.03   0.05  -0.11
     2   6    -0.02   0.02  -0.05     0.01   0.04  -0.03    -0.02   0.03  -0.04
     3   6     0.03   0.02  -0.12     0.02   0.15  -0.04     0.01   0.05   0.00
     4   6     0.00   0.05  -0.07     0.07  -0.04  -0.03     0.01  -0.03   0.10
     5   6    -0.02   0.07  -0.07     0.02  -0.07  -0.05    -0.05  -0.06   0.09
     6   6     0.03  -0.02  -0.12    -0.02   0.15   0.04    -0.01   0.05  -0.00
     7   6     0.05  -0.01   0.02     0.04   0.16   0.03     0.04   0.02   0.08
     8   6    -0.01   0.08  -0.03     0.09  -0.10  -0.08     0.05   0.01  -0.01
     9   6    -0.08   0.00   0.14     0.01  -0.14   0.06     0.03   0.03  -0.05
    10   6     0.05   0.01   0.02    -0.04   0.16  -0.03    -0.04   0.02  -0.08
    11   6     0.05   0.04  -0.09     0.03  -0.07  -0.06    -0.00  -0.08   0.06
    12   6    -0.02  -0.02  -0.05    -0.01   0.04   0.03     0.02   0.03   0.04
    13   6     0.02   0.02   0.11     0.07  -0.02   0.07     0.11  -0.01  -0.11
    14   6     0.08  -0.00  -0.01     0.00   0.19   0.04    -0.03   0.00   0.14
    15   6     0.08   0.00  -0.01    -0.00   0.19  -0.04     0.03   0.00  -0.14
    16   6    -0.02  -0.07  -0.07    -0.02  -0.07   0.05     0.05  -0.06  -0.09
    17   6     0.02  -0.02   0.11    -0.07  -0.02  -0.07    -0.11  -0.01   0.11
    18   6     0.05  -0.04  -0.09    -0.03  -0.07   0.06     0.00  -0.08  -0.06
    19   6    -0.09   0.07   0.12    -0.03  -0.07  -0.10    -0.03   0.05   0.11
    20   6    -0.08  -0.00   0.14    -0.01  -0.14  -0.06    -0.03   0.03   0.05
    21   6     0.00  -0.05  -0.07    -0.07  -0.04   0.03    -0.01  -0.03  -0.10
    22   6    -0.01  -0.08  -0.03    -0.09  -0.10   0.08    -0.05   0.01   0.01
    23   1    -0.14  -0.16   0.26     0.00  -0.19   0.18     0.06   0.05  -0.19
    24   1     0.05   0.06  -0.12     0.02  -0.01  -0.05    -0.01  -0.09   0.20
    25   1     0.02   0.10  -0.04     0.09  -0.09  -0.12     0.07   0.04  -0.08
    26   1    -0.13  -0.06   0.33    -0.03  -0.16   0.19     0.06   0.13  -0.17
    27   1     0.06  -0.00  -0.14     0.03  -0.10  -0.06     0.01  -0.13   0.01
    28   1    -0.03   0.00   0.24     0.17  -0.10   0.19     0.23  -0.00  -0.31
    29   1     0.09  -0.01   0.00    -0.02   0.20   0.09    -0.10   0.02   0.23
    30   1     0.09   0.01   0.00     0.02   0.20  -0.09     0.10   0.02  -0.23
    31   1    -0.03  -0.00   0.24    -0.17  -0.10  -0.19    -0.23  -0.00   0.31
    32   1     0.06   0.00  -0.14    -0.03  -0.10   0.06    -0.01  -0.13  -0.01
    33   1    -0.14   0.16   0.26    -0.00  -0.19  -0.18    -0.06   0.05   0.19
    34   1    -0.13   0.06   0.33     0.03  -0.16  -0.19    -0.06   0.13   0.17
    35   1     0.05  -0.06  -0.12    -0.02  -0.01   0.05     0.01  -0.09  -0.20
    36   1     0.02  -0.10  -0.04    -0.09  -0.09   0.12    -0.07   0.04   0.08
                     16                     17                     18
                      A                      A                      A
 Frequencies --    470.8797               473.8219               496.4598
 Red. masses --      5.0874                 3.8725                 4.6966
 Frc consts  --      0.6646                 0.5122                 0.6820
 IR Inten    --      4.2038                 0.0115                 0.0419
  Atom  AN      X      Y      Z        X      Y      Z        X      Y      Z
     1   6     0.08   0.04  -0.06    -0.00  -0.01   0.06     0.01   0.10   0.04
     2   6     0.03  -0.05   0.11     0.11   0.04  -0.12    -0.00  -0.02   0.13
     3   6    -0.02  -0.02   0.04     0.01  -0.04  -0.09    -0.09  -0.05  -0.13
     4   6     0.00  -0.04  -0.02    -0.06  -0.04   0.01    -0.01   0.12   0.01
     5   6     0.04  -0.07   0.07     0.08   0.03   0.03     0.05  -0.01   0.03
     6   6     0.02  -0.02  -0.04    -0.01  -0.04   0.09    -0.09   0.05  -0.13
     7   6    -0.15   0.07  -0.01    -0.06  -0.03  -0.03    -0.05  -0.14  -0.10
     8   6    -0.01  -0.12   0.02    -0.02   0.03  -0.11    -0.03   0.02   0.08
     9   6     0.07  -0.06  -0.11    -0.01  -0.07   0.08     0.07   0.03  -0.03
    10   6     0.15   0.07   0.01     0.06  -0.03   0.03    -0.05   0.14  -0.10
    11   6    -0.12   0.05  -0.00    -0.01   0.08   0.07     0.06   0.00  -0.06
    12   6    -0.03  -0.05  -0.11    -0.11   0.04   0.12    -0.00   0.02   0.13
    13   6    -0.18   0.02  -0.06    -0.06   0.04  -0.09    -0.10  -0.12   0.02
    14   6    -0.01   0.17   0.01    -0.05  -0.02   0.13     0.07  -0.09   0.02
    15   6     0.01   0.17  -0.01     0.05  -0.02  -0.13     0.07   0.10   0.02
    16   6    -0.04  -0.07  -0.07    -0.08   0.03  -0.02     0.05   0.01   0.03
    17   6     0.18   0.02   0.06     0.06   0.04   0.09    -0.10   0.12   0.02
    18   6     0.12   0.05   0.00     0.01   0.08  -0.07     0.06  -0.00  -0.06
    19   6    -0.08   0.04   0.06     0.00  -0.01  -0.06     0.01  -0.10   0.04
    20   6    -0.07  -0.06   0.11     0.01  -0.07  -0.08     0.07  -0.03  -0.03
    21   6    -0.00  -0.04   0.02     0.06  -0.04  -0.01    -0.01  -0.12   0.01
    22   6     0.01  -0.12  -0.02     0.02   0.03   0.11    -0.03  -0.02   0.08
    23   1     0.13   0.15  -0.19    -0.06  -0.01   0.21     0.04   0.21  -0.06
    24   1    -0.03   0.01  -0.08    -0.12  -0.08   0.11     0.01   0.18  -0.10
    25   1    -0.04  -0.15   0.02    -0.01   0.05  -0.18    -0.09  -0.02   0.06
[...]
 0000377,-0.00000429,-0.00000523,0.00000294,-0.00001139,-0.00000424,0.0
 0000003,-0.00001003,-0.00000032,-0.00000049,-0.00001252,0.00001056,-0.
 00000415,-0.00004298,0.00001476,0.00007231,-0.00020012,0.00036036,0.00
 011092,0.04005933,0.07227463,0.04759423,-0.00002563,-0.00002515,0.0000
 4531,-0.00001323,0.00007427,-0.00004233,-0.00006811,-0.00002115,0.0002
 5138,0.00000589,0.00001807,0.00000545,-0.00002940,-0.00000701,0.000000
 59,0.00037749,-0.00008921,0.00009530,-0.00002134,-0.00003989,-0.000033
 03,-0.00002502,-0.00001210,-0.00000263,0.00000853,-0.00001969,0.000005
 99,0.00153736,0.00311279,-0.00185022,-0.00003214,-0.00002785,0.0000000
 6,0.00117798,-0.00145631,-0.00147938,0.00005565,-0.00002530,0.00001051
 ,-0.00004537,0.00039768,0.00017135,-0.00089944,-0.00042643,-0.00028244
 ,-0.00915777,0.00156040,-0.00256097,-0.01280809,-0.00258750,-0.0049520
 1,-0.31011293,-0.00417272,-0.07963085,-0.00068134,0.00046065,0.0000030
 5,0.00052501,0.00144078,0.00136379,0.00026211,-0.00007444,0.00011988,0
 .00003399,-0.00038444,-0.00012892,0.00000911,0.00001781,-0.00003864,0.
 00000256,-0.00001497,0.00000281,-0.00000844,-0.00001032,0.00000030,-0.
 00001338,-0.00000299,-0.00000555,-0.00001699,-0.00000638,-0.00000244,-
 0.00000938,0.00001495,-0.00001003,-0.00009827,0.00000993,-0.00004491,0
 .00004007,0.00004432,-0.00002349,0.00051301,-0.00000149,0.00163826,0.3
 2892997,0.00001323,-0.00002963,0.00003394,0.00006715,0.00000370,-0.000
 00725,-0.00018574,0.00018605,0.00022345,0.00001760,0.00003688,0.000005
 40,-0.00000682,0.00004314,-0.00001695,0.00029438,-0.00069435,-0.000055
 14,-0.00011365,-0.00022215,-0.00011350,-0.00001925,0.00001783,-0.00001
 749,-0.00001640,-0.00002555,0.00000300,0.00205271,-0.00424763,-0.00175
 458,0.00002264,-0.00006498,0.00002402,-0.00049940,-0.00401806,-0.00270
 592,0.00004689,0.00007583,-0.00000357,0.00028105,-0.00031060,0.0002314
 7,0.00092943,0.00074499,0.00010703,-0.02589767,0.00276681,-0.00678329,
 0.02759519,0.00507135,0.00779842,-0.00486669,-0.05855906,-0.00681053,-
 0.00142265,0.00036988,-0.00021656,-0.00170481,0.00110480,0.00062979,-0
 .00004932,0.00009171,0.00004401,0.00027651,0.00009676,0.00012540,0.000
 00213,0.00000493,-0.00003111,-0.00000005,0.00000247,-0.00000148,0.0000
 0020,0.00000238,-0.00000328,0.00000414,0.00000008,0.00000023,0.0000063
 8,0.00000402,-0.00000085,-0.00000237,-0.00000540,0.00000032,0.00013278
 ,-0.00000956,0.00008345,-0.00002738,-0.00003373,-0.00004594,-0.0006917
 7,0.00083832,0.00098934,0.00312826,0.05740453,-0.00001322,0.00003869,-
 0.00001446,-0.00001079,-0.00011041,0.00008921,0.00032576,0.00011823,-0
 .00078999,-0.00004142,-0.00002150,-0.00001985,0.00006062,-0.00004911,0
 .00003843,0.00005563,-0.00013039,-0.00046152,0.00004508,0.00026271,0.0
 0024255,0.00002624,-0.00001728,0.00001051,0.00000701,0.00002861,-0.000
 00077,-0.00130968,-0.00045958,0.00879128,0.00000179,0.00008830,-0.0000
 2418,0.00009883,-0.00346045,0.00285330,-0.00007614,-0.00003087,-0.0000
 0420,-0.00011767,-0.00003893,-0.00068095,0.00034598,-0.00033433,0.0003
 5212,-0.01035411,0.00011508,-0.00039221,0.00023625,0.00001149,0.003777
 10,-0.07859561,-0.00658958,-0.05911812,-0.00057500,0.00028792,0.000166
 45,0.00023962,0.00129008,-0.00172515,0.00000811,0.00002048,-0.00009815
 ,0.00022634,0.00001312,0.00003909,-0.00000332,0.00000491,-0.00001005,0
 .00000017,0.00000278,0.00000326,-0.00000173,-0.00000145,-0.00000052,-0
 .00000247,0.00000383,0.00000377,-0.00000243,0.00000085,0.00000189,0.00
 000104,0.00000291,-0.00000049,-0.00001755,-0.00000611,-0.00002083,-0.0
 0004643,0.00000634,0.00010440,0.00146686,0.00100671,-0.00466291,0.0877
 6920,0.00853344,0.05130058,-0.00219379,-0.00020562,0.00278174,-0.00209
 138,0.00167303,0.00202237,0.00011379,0.00014388,0.00056887,0.00063467,
 0.00072812,0.00036094,0.00044703,0.00035209,0.00027164,-0.00086721,0.0
 0078141,0.00118193,0.00005366,-0.00005178,-0.00012712,-0.00036085,0.00
 022218,-0.00029994,-0.00020621,-0.00053113,-0.00001396,-0.00017462,-0.
 00035117,-0.00014844,0.00001721,-0.00004250,-0.00000828,-0.00566263,-0
 .00046574,-0.00289396,0.00004342,0.00005369,-0.00000005,-0.00003646,-0
 .00002736,0.00002484,-0.00002664,-0.00000518,-0.00003443,0.00185684,-0
 .00091139,-0.00173090,0.00016534,-0.00013018,0.00006053,-0.00025651,0.
 00049402,-0.00012437,-0.29929134,-0.00358780,-0.10537920,0.00034845,0.
 00033866,0.00041578,-0.01383670,-0.00198589,-0.00740536,0.00039239,0.0
 0394139,-0.00065830,0.00006799,-0.00005927,-0.00027364,0.00002101,0.00
 000109,-0.00002994,-0.00000319,0.00000163,-0.00002076,0.00001427,-0.00
 001131,-0.00001870,0.00000911,-0.00000213,-0.00000333,0.00000173,-0.00
 000579,0.00002435,0.00001398,-0.00000921,-0.00000395,0.00000209,-0.000
 02415,0.00000083,0.00000791,-0.00003923,0.00000083,-0.00005747,-0.0001
 0658,-0.00002571,0.32124068,-0.00001260,0.00055073,-0.00031679,0.00118
 610,0.00011943,-0.00071516,0.00000018,-0.00051725,-0.00015709,-0.00017
 271,-0.00026447,0.00003633,0.00004567,-0.00010169,0.00001292,-0.000882
 19,0.00087272,0.00142096,0.00018611,-0.00024542,0.00017626,0.00010533,
 -0.00009816,0.00008149,0.00003570,0.00017355,-0.00006218,-0.00021656,-
 0.00017809,0.00001172,-0.00000760,0.00009466,0.00000446,-0.02431000,0.
 00235141,-0.00920066,-0.00004950,-0.00003092,-0.00008128,0.00008216,0.
 00003588,0.00002052,-0.00002587,0.00014396,-0.00007996,0.00007080,-0.0
 0330649,-0.00409532,0.00001598,-0.00001402,0.00006821,-0.00114026,0.00
 044730,-0.00018211,-0.00391623,-0.05511606,-0.01112290,-0.00012263,-0.
 00045137,-0.00009644,0.02556448,0.00431354,0.00920489,0.00312352,-0.00
 225331,-0.00416129,0.00005929,0.00005384,0.00006267,-0.00001370,-0.000
 03081,0.00003358,-0.00001358,-0.00000899,0.00001946,-0.00002053,-0.000
 00615,0.00000390,-0.00001781,0.00000492,-0.00000491,-0.00001545,0.0000
 1130,-0.00001549,0.00000335,0.00002459,0.00000929,0.00000627,0.0000117
 1,-0.00000145,0.00004263,-0.00002706,-0.00001345,-0.00017072,-0.000315
 59,-0.00015424,0.00068354,0.05390807,0.00105933,0.00011839,-0.00153090
 ,0.00051306,-0.00092369,-0.00005030,-0.00007271,-0.00093320,-0.0004859
 3,0.00020354,0.00034760,0.00010150,0.00062269,0.00003007,0.00018282,0.
 00118794,0.00066277,-0.00191914,0.00017720,0.00000144,0.00012528,-0.00
 007832,0.00004003,-0.00013933,-0.00014047,-0.00026082,-0.00000331,0.00
 022670,0.00040774,0.00017989,0.00008818,0.00012665,-0.00001793,-0.0148
 4564,0.00280356,-0.00163834,-0.00020625,0.00002170,-0.00006626,0.00007
 758,-0.00006218,-0.00002733,0.00008780,0.00010466,0.00012848,-0.001448
 95,-0.00440138,0.00270397,-0.00019361,0.00009852,-0.00022233,-0.001034
 23,0.00018254,0.00012541,-0.10339242,-0.01242135,-0.08238037,0.0007481
 9,-0.00093357,-0.00076557,0.00532432,-0.00019958,0.00584692,-0.0003806
 3,-0.00315062,0.00624342,-0.00027387,-0.00006250,-0.00021477,0.0000025
 9,-0.00005639,-0.00000381,-0.00004735,-0.00002703,-0.00000028,-0.00005
 459,0.00000766,0.00001342,-0.00003863,0.00003110,-0.00001006,0.0000068
 2,0.00002584,-0.00000728,0.00000909,0.00002272,0.00000423,0.00000638,0
 .00000405,0.00000384,0.00002079,-0.00002983,0.00001065,-0.00014091,-0.
 00029843,-0.00004542,0.11010743,0.01621082,0.07762160,-0.00002607,-0.0
 0002655,0.00004107,0.00001878,0.00005102,-0.00000963,-0.00004193,0.000
 34945,-0.00000432,0.00000296,0.00002466,0.00000284,-0.00000782,-0.0000
 0523,0.00001423,-0.00064385,-0.00071949,-0.00040166,-0.00010601,-0.000
 06238,0.00001652,-0.00002085,-0.00000607,-0.00000265,0.00000315,-0.000
 01840,0.00000457,0.00018903,-0.00008181,0.00013153,-0.00001405,-0.0000
 0489,-0.00000124,0.00079819,0.00376387,0.00017654,0.00002113,0.0000120
 3,0.00000145,0.00000598,0.00007341,0.00001099,-0.00000011,-0.00000169,
 -0.00001982,-0.01590314,-0.00196467,-0.00615421,0.00015207,0.00037576,
 0.00010307,0.00059689,-0.00229775,0.00050010,0.00039331,-0.00008249,0.
 00028476,-0.30516034,-0.00886109,-0.08378991,0.00181565,-0.00131716,-0
 .00228722,-0.00644883,0.00163782,-0.00205633,0.00001427,0.00002054,-0.
 00005461,0.00000165,-0.00001349,0.00000192,-0.00000775,-0.00000911,-0.
 00000173,-0.00001092,-0.00000193,-0.00000441,-0.00001338,-0.00000414,-
 0.00000247,-0.00001714,0.00001204,-0.00001139,-0.00001315,0.00001367,-
 0.00000047,0.00000326,0.00003528,-0.00000446,-0.00000528,0.00007585,-0
 .00005636,0.00059785,0.00066088,0.00028720,-0.00019154,-0.00016628,0.0
 0018962,0.32397528,0.00000571,0.00001309,-0.00002538,-0.00002464,-0.00
 000275,0.00003132,0.00004125,-0.00035905,-0.00016084,-0.00000240,0.000
 00734,0.00000287,0.00000037,0.00000998,0.00001057,0.00124004,0.0004911
 3,0.00019870,0.00009775,0.00001943,-0.00000196,0.00000870,0.00000511,0
 .00000678,0.00000161,0.00000480,-0.00000276,0.00015655,0.00013554,0.00
 006385,-0.00000232,-0.00000163,-0.00000302,0.00287578,-0.00285078,-0.0
 0240258,-0.00000321,-0.00003277,0.00003612,0.00001920,0.00001132,0.000
 00962,-0.00008487,-0.00000757,-0.00001955,0.02303776,0.00451329,0.0076
 5759,-0.00032380,0.00016360,-0.00006194,0.00125997,0.00068621,0.001953
 70,0.00003866,-0.00141887,-0.00027421,-0.00879027,-0.05800317,-0.01162
 486,-0.00045346,-0.00273221,-0.00480718,-0.02616576,0.00387625,-0.0074
 4501,0.00001130,-0.00000616,-0.00000769,0.00000136,-0.00000002,-0.0000
 0459,0.00000101,0.00000001,-0.00000100,0.00000193,0.00000059,-0.000001
 48,0.00000299,0.00000008,-0.00000383,0.00001281,-0.00000079,0.00000424
 ,-0.00000232,-0.00000260,-0.00000519,0.00000732,-0.00001612,-0.0000005
 3,0.00000309,0.00001992,-0.00007547,-0.00061431,-0.00031591,-0.0003414
 7,-0.00015049,-0.00006039,0.00039016,0.00916956,0.05550980,0.00003110,
 0.00000340,0.00002027,-0.00000333,-0.00000054,-0.00003037,0.00002610,-
 0.00007162,0.00018522,-0.00002258,-0.00000636,-0.00000020,-0.00000797,
 -0.00001135,-0.00002481,0.00020593,-0.00014881,0.00016336,0.00001967,0
 .00002501,0.00001431,0.00001112,-0.00001139,0.00000092,0.00000526,0.00
 001237,0.00000101,0.00009850,0.00008625,-0.00002425,-0.00001090,-0.000
 00193,0.00000109,-0.00153195,-0.00284031,0.00340158,0.00001575,-0.0000
 2149,-0.00002249,0.00000201,0.00000944,-0.00001626,-0.00004509,-0.0000
 2166,0.00002649,0.00665044,-0.00132117,0.00398034,-0.00007763,0.000176
 83,-0.00001001,0.00117678,0.00068461,-0.00253664,0.00015982,0.00099249
 ,0.00001335,-0.08329065,-0.00946395,-0.06287669,-0.00120410,-0.0053437
 0,0.00518533,-0.01537702,-0.00063860,-0.00152135,-0.00001868,-0.000003
 89,0.00001346,0.00000350,0.00000185,-0.00000075,-0.00000236,-0.0000023
 1,0.00000137,-0.00000441,0.00000148,0.00000066,-0.00000554,-0.00000023
 ,0.00000377,-0.00000051,0.00000474,0.00000002,-0.00000587,0.00000406,-
 0.00000209,0.00000636,0.00000416,0.00000351,-0.00006357,0.00001845,0.0
 0015018,-0.00016708,0.00002495,0.00019785,0.00026237,0.00053156,-0.000
 83035,0.09221889,0.01552682,0.05792763,0.00001362,0.00000640,-0.000050
 17,-0.00002325,0.00005120,0.00003152,0.00001571,-0.00001677,-0.0000706
 3,0.00000939,-0.00004346,0.00000429,0.00002465,0.00001254,0.00001648,0
 .00059658,0.00061236,0.00033835,-0.00000884,-0.00003783,0.00000541,-0.
 00002536,-0.00000435,-0.00001718,-0.00000754,-0.00002015,-0.00000230,-
 0.00021122,0.00012537,0.00013807,-0.00001019,0.00001559,-0.00000827,-0
 .00145339,0.00372959,-0.00143323,-0.00000764,-0.00000219,0.00000080,0.
 00003198,-0.00000383,0.00000335,0.00004919,0.00008066,-0.00001163,-0.0
 0066690,0.00049613,0.00010744,-0.00001225,-0.00003426,-0.00006697,0.00
 011149,-0.00019496,0.00030980,0.00974796,0.01690921,0.01136605,-0.0046
 1142,0.00182239,-0.00284709,-0.08790120,-0.06948019,-0.05565973,-0.005
 28755,-0.02490803,-0.01553823,0.00002103,0.00001371,0.00000260,-0.0000
 0138,-0.00000098,0.00001153,-0.00000063,0.00000308,0.00000504,0.000001
 65,-0.00000136,0.00000350,0.00000256,0.00000005,0.00000017,-0.00000166
 ,-0.00000301,-0.00000050,0.00000018,-0.00000114,0.00000276,-0.00001321
 ,0.00002108,0.00000354,0.00001566,-0.00001731,-0.00001244,0.00003080,0
 .00005940,0.00001776,0.00052871,-0.00108489,0.00139077,-0.00048003,-0.
 00124280,-0.00061188,0.08878404,-0.00005285,0.00002582,-0.00008246,-0.
 00009717,-0.00005505,0.00004564,0.00000056,-0.00005119,-0.00002422,-0.
 00000336,0.00000092,0.00002608,0.00006736,-0.00001637,0.00001889,-0.00
 110783,-0.00007379,-0.00059165,0.00006006,0.00006901,0.00001229,0.0000
 2204,0.00002670,0.00001089,0.00000063,0.00001865,0.00001134,0.00005986
 ,-0.00039075,0.00008303,0.00002335,0.00004774,-0.00000332,0.00469390,-
 0.00082016,-0.00304401,-0.00006562,-0.00001027,-0.00001171,-0.00004476
 ,-0.00009938,-0.00001356,-0.00003206,-0.00008751,0.00004189,0.00053139
 ,-0.00033542,0.00033475,0.00036394,-0.00013604,-0.00007472,-0.00012407
 ,0.00024662,0.00049821,-0.01008973,-0.01495031,-0.01319221,0.00095083,
 0.00249332,-0.00137735,-0.06804317,-0.22443371,-0.12137879,0.00102539,
 0.00349442,0.00097400,-0.00000109,-0.00003083,0.00005640,0.00000099,0.
 00001070,-0.00001787,0.00001281,0.00000593,-0.00000646,0.00001349,-0.0
 0000002,-0.00000185,0.00001497,0.00000247,-0.00000278,0.00001297,-0.00
 001121,0.00000682,0.00001908,-0.00001297,-0.00000489,0.00001222,-0.000
 05777,0.00001869,-0.00000575,-0.00003389,-0.00001764,-0.00004004,-0.00
 002126,-0.00003356,-0.00057686,-0.00009862,0.00220648,0.00018937,0.000
 11629,-0.00006857,0.07316682,0.23513476,0.00008736,-0.00001795,0.00005
 184,0.00018186,-0.00002565,-0.00009863,-0.00019503,-0.00002716,0.00007
 833,-0.00003041,-0.00001646,-0.00001634,-0.00016272,0.00000368,-0.0000
 8246,-0.00000269,-0.00080729,0.00016528,-0.00003396,-0.00010453,-0.000
 06827,0.00006303,0.00000831,0.00003757,0.00000794,0.00005894,-0.000018
 49,0.00054616,0.00013203,-0.00034168,0.00002930,-0.00009224,0.00003371
 ,-0.00085817,-0.00177365,0.00688046,0.00005958,0.00005956,0.00000759,0
 .00010976,0.00002877,0.00003150,-0.00005469,0.00009925,-0.00003252,0.0
 0003686,0.00105948,-0.00015398,-0.00049530,0.00013217,0.00011956,0.000
 24965,-0.00020361,-0.00088284,-0.00181594,-0.00484439,0.00007081,-0.00
 345377,-0.00115293,0.00370081,-0.05661587,-0.12132958,-0.11818937,-0.0
 0093635,-0.00842899,-0.00234195,-0.00002997,-0.00003360,-0.00000385,0.
 00001152,0.00001787,-0.00003654,0.00000693,0.00000325,-0.00000032,0.00
 000192,0.00000459,-0.00000075,0.00000281,0.00000148,0.00000326,0.00000
 301,-0.00000188,0.00000377,0.00000570,-0.00000244,0.00000837,-0.000003
 69,-0.00000844,-0.00001272,-0.00000947,-0.00001778,0.00001918,-0.00002
 959,0.00000501,0.00003751,0.00147748,0.00212782,-0.00311639,-0.0002409
 5,-0.00067896,-0.00001942,0.06118009,0.13437691,0.11605400,-0.00001987
 ,0.00002442,0.00002933,-0.00001918,0.00002803,0.00001976,0.00007056,0.
 00000970,0.00005176,0.00000712,0.00003811,-0.00000246,0.00004329,-0.00
 000719,0.00002032,-0.00007975,0.00012273,0.00039087,0.00000933,0.00003
 251,0.00001313,-0.00000809,-0.00000070,-0.00000587,-0.00000700,-0.0000
 1302,-0.00000178,-0.00021892,0.00001985,-0.00011988,-0.00001145,0.0000
 1945,-0.00000722,-0.00016426,-0.00083594,-0.00030855,-0.00000676,-0.00
 001053,-0.00000144,-0.00006471,-0.00000980,-0.00001389,0.00005970,-0.0
 0004038,0.00000002,0.00042571,-0.00163898,-0.00325325,0.00009105,-0.00
 022831,0.00017894,0.00034195,0.00000038,-0.00007686,-0.00396111,-0.000
 75050,-0.00407684,0.01055239,-0.01017970,-0.00215644,-0.01247805,0.024
 56336,0.00651975,-0.15716812,0.13287250,0.01942692,-0.00000319,0.00001
 360,-0.00004736,-0.00000063,-0.00001281,0.00000694,-0.00001006,-0.0000
 0617,0.00000087,-0.00000775,-0.00000101,-0.00000236,-0.00000843,-0.000
 00021,-0.00000173,-0.00000533,0.00000701,-0.00000429,-0.00000537,0.000
 00764,-0.00000473,0.00000211,0.00001467,-0.00000297,0.00002004,-0.0000
 4435,0.00002781,0.00001634,0.00001959,-0.00002621,-0.00072377,0.001147
 99,0.00029856,0.00052276,-0.00013407,0.00155750,0.00073844,-0.00095767
 ,0.00090760,0.16207102,0.00001815,0.00002247,-0.00004583,0.00004246,-0
 .00002036,-0.00001458,0.00002516,-0.00000466,0.00006131,-0.00001051,-0
 .00002546,-0.00000340,-0.00000802,-0.00001164,-0.00001387,-0.00021111,
 0.00009941,0.00043955,0.00004536,0.00002136,-0.00000712,0.00002350,0.0
 0000271,0.00001159,-0.00000326,0.00002476,-0.00000713,-0.00020732,-0.0
 0001180,-0.00020455,0.00001801,0.00000738,0.00000424,-0.00038830,-0.00
 013074,0.00010261,-0.00001739,0.00001949,-0.00000843,-0.00001989,-0.00
 004464,-0.00000853,0.00006369,0.00002440,0.00000623,-0.00264223,-0.000
 98044,-0.00495079,-0.00022604,-0.00055522,0.00007884,0.00122026,-0.000
 21519,0.00001083,0.00006645,0.00232996,-0.00159975,0.01728780,-0.01605
 806,-0.00309341,-0.00221938,0.00413966,0.00002275,0.13214857,-0.225745
 71,-0.04226925,-0.00000164,-0.00000900,0.00002703,-0.00000308,0.000005
 93,-0.00000325,0.00000618,0.00000738,0.00000088,0.00000911,0.00000001,
 0.00000232,0.00001032,0.00000238,0.00000145,0.00000611,-0.00000976,0.0
 0000523,0.00001492,-0.00000956,0.,-0.00001108,-0.00001300,0.00000152,0
 .00006558,-0.00014943,0.00004346,-0.00004952,0.00000699,-0.00005722,-0
 .00013398,0.00000723,-0.00008393,-0.00082062,0.00022698,0.00186940,-0.
 00002808,0.00003316,0.00144840,-0.14407019,0.23701301,-0.00004080,-0.0
 0000537,0.00005088,-0.00011868,-0.00007348,0.00003601,-0.00000117,-0.0
 0012565,-0.00006792,0.00003486,0.00003055,0.00001219,0.00007831,0.0000
 1331,0.00003724,0.00039623,0.00027402,-0.00075080,0.00002159,0.0000027
 2,0.00001000,-0.00003823,0.00001362,-0.00002942,-0.00000890,-0.0000441
 1,0.00001256,-0.00001535,0.00000403,0.00014735,0.00002167,0.00001353,0
 .00000053,-0.00048864,-0.00008851,-0.00080796,-0.00003083,-0.00000504,
 -0.00001269,0.00002530,-0.00001364,0.00000913,0.00001387,0.00002209,0.
 00003279,-0.00314267,-0.00453926,0.00564845,-0.00005967,-0.00003694,-0
 .00055015,0.00066770,-0.00063198,0.00024962,-0.00360619,-0.00206862,0.
 00345570,0.01055120,-0.01130628,0.00120813,-0.00630175,0.00935909,0.00
 459672,0.01926189,-0.04266000,-0.04874572,-0.00002076,-0.00001947,-0.0
 0000030,0.00000504,0.00000646,-0.00000032,0.00000086,-0.00000089,-0.00
 000227,-0.00000173,0.00000100,0.00000137,0.00000030,0.00000328,-0.0000
 0052,0.00000451,-0.00000041,0.00000294,0.00000174,-0.00000253,0.000007
 70,0.00000011,0.00000110,0.00000191,0.00003604,-0.00006551,0.00000380,
 -0.00005780,0.00000320,0.00006047,-0.00036161,0.00042383,0.00018398,0.
 00111855,0.00205715,-0.00337605,0.00139095,0.00122532,-0.00188701,-0.0
 1933593,0.04823339,0.04046167\\-0.00351100,-0.00130993,-0.00079805,-0.
 00550227,-0.00105183,-0.00119079,-0.00210212,0.00557217,-0.00128699,0.
 00026389,0.00415170,-0.00228147,0.00570772,-0.00180348,0.00210230,0.00
 211298,0.00557113,0.00128057,0.00407061,-0.00555541,0.00169450,0.00143
 312,0.00424045,-0.00134361,0.00375443,-0.00117030,0.00193419,-0.004086
 71,-0.00555072,-0.00169798,0.00421370,0.00441354,0.00033361,0.00549542
 ,-0.00104876,0.00118990,-0.00235123,-0.00566680,0.00073236,0.00421003,
 -0.00239024,0.00122759,-0.00421087,-0.00239155,-0.00122104,-0.00569406
 ,-0.00182341,-0.00210559,0.00235943,-0.00567462,-0.00072313,-0.0042227
 0,0.00442369,-0.00032840,0.00350728,-0.00130723,0.00078920,-0.00375964
 ,-0.00115869,-0.00191230,-0.00025272,0.00414778,0.00228827,-0.00145530
 ,0.00424103,0.00133174,0.00059946,0.00000828,0.00014199,0.00009356,0.0
 0029504,-0.00020431,0.00007153,0.00024391,-0.00004289,0.00000180,-0.00
 006691,-0.00001133,0.00003793,0.00013331,0.00000293,-0.00010947,-0.000
 09794,-0.00013458,0.00008811,0.00005421,0.00009379,-0.00008610,0.00005
 393,-0.00009880,0.00011188,-0.00009763,0.00013278,-0.00003513,0.000135
 47,-0.00000758,-0.00059502,0.00000992,-0.00013628,0.00000115,-0.000067
 14,0.00000143,-0.00009049,0.00029520,0.00020245,-0.00006919,0.00024183
 ,0.00004553\\\@


 THE 2ND LAW OF THERMODYNAMICS HAS THE SAME
 DEGREE OF TRUTH AS THE STATEMENT THAT IF YOU THROW
 A TUMBLERFULL OF WATER INTO THE SEA, YOU CANNOT GET
 THE SAME TUMBLERFULL OF WATER OUT AGAIN.
          - J.C. MAXWELL, LETTER TO LORD RAYLEIGH, DECEMBER 6,1870
 Job cpu time:       0 days  2 hours 36 minutes 10.4 seconds.
 Elapsed time:       0 days  0 hours 15 minutes 45.8 seconds.
 File lengths (MBytes):  RWF=    831 Int=      0 D2E=      0 Chk=     23 Scr=      1
 Normal termination of Gaussian 16 at Sun Jul 16 22:48:45 2023.
