 Entering Gaussian System, Link 0=g16
 Initial command:
 /home/kimariyb/g16/l1.exe "/home/kimariyb/g16/scratch/Gau-531844.inp" -scrdir="/home/kimariyb/g16/scratch/"
 Default is to use a total of  10 processors:
                               10 via shared-memory
                                1 via Linda
 Entering Link 1 = /home/kimariyb/g16/l1.exe PID=    531845.
  
 Copyright (c) 1988,1990,1992,1993,1995,1998,2003,2009,2016,
            Gaussian, Inc.  All Rights Reserved.
  
 This is part of the Gaussian(R) 16 program.  It is based on
 the Gaussian(R) 09 system (copyright 2009, Gaussian, Inc.),
 the Gaussian(R) 03 system (copyright 2003, Gaussian, Inc.),
 the Gaussian(R) 98 system (copyright 1998, Gaussian, Inc.),
 the Gaussian(R) 94 system (copyright 1995, Gaussian, Inc.),
 the Gaussian 92(TM) system (copyright 1992, Gaussian, Inc.),
 the Gaussian 90(TM) system (copyright 1990, Gaussian, Inc.),
 the Gaussian 88(TM) system (copyright 1988, Gaussian, Inc.),
 the Gaussian 86(TM) system (copyright 1986, Carnegie Mellon
 University), and the Gaussian 82(TM) system (copyright 1983,
 Carnegie Mellon University). Gaussian is a federally registered
 trademark of Gaussian, Inc.
  
 This software contains proprietary and confidential information,
 including trade secrets, belonging to Gaussian, Inc.
  
 This software is provided under written license and may be
 used, copied, transmitted, or stored only in accord with that
 written license.
  
 The following legend is applicable only to US Government
 contracts under FAR:
  
                    RESTRICTED RIGHTS LEGEND
  
 Use, reproduction and disclosure by the US Government is
 subject to restrictions as set forth in subparagraphs (a)
 and (c) of the Commercial Computer Software - Restricted
 Rights clause in FAR 52.227-19.
  
 Gaussian, Inc.
 340 Quinnipiac St., Bldg. 40, Wallingford CT 06492
  
  
 ---------------------------------------------------------------
 Warning -- This program may not be used in any manner that
 competes with the business of Gaussian, Inc. or will provide
 assistance to any competitor of Gaussian, Inc.  The licensee
 of this program is prohibited from giving any competitor of
 Gaussian, Inc. access to this program.  By using this program,
 the user acknowledges that Gaussian, Inc. is engaged in the
 business of creating and licensing software in the field of
 computational chemistry and represents and warrants to the
 licensee that it is not a competitor of Gaussian, Inc. and that
 it will not use this program in any manner prohibited above.
 ---------------------------------------------------------------
  

 Cite this work as:
 Gaussian 16, Revision A.03,
 M. J. Frisch, G. W. Trucks, H. B. Schlegel, G. E. Scuseria, 
 M. A. Robb, J. R. Cheeseman, G. Scalmani, V. Barone, 
 G. A. Petersson, H. Nakatsuji, X. Li, M. Caricato, A. V. Marenich, 
 J. Bloino, B. G. Janesko, R. Gomperts, B. Mennucci, H. P. Hratchian, 
 J. V. Ortiz, A. F. Izmaylov, J. L. Sonnenberg, D. Williams-Young, 
 F. Ding, F. Lipparini, F. Egidi, J. Goings, B. Peng, A. Petrone, 
 T. Henderson, D. Ranasinghe, V. G. Zakrzewski, J. Gao, N. Rega, 
 G. Zheng, W. Liang, M. Hada, M. Ehara, K. Toyota, R. Fukuda, 
 J. Hasegawa, M. Ishida, T. Nakajima, Y. Honda, O. Kitao, H. Nakai, 
 T. Vreven, K. Throssell, J. A. Montgomery, Jr., J. E. Peralta, 
 F. Ogliaro, M. J. Bearpark, J. J. Heyd, E. N. Brothers, K. N. Kudin, 
 V. N. Staroverov, T. A. Keith, R. Kobayashi, J. Normand, 
 K. Raghavachari, A. P. Rendell, J. C. Burant, S. S. Iyengar, 
 J. Tomasi, M. Cossi, J. M. Millam, M. Klene, C. Adamo, R. Cammi, 
 J. W. Ochterski, R. L. Martin, K. Morokuma, O. Farkas, 
 J. B. Foresman, and D. J. Fox, Gaussian, Inc., Wallingford CT, 2016.
 
 ******************************************
 Gaussian 16:  ES64L-G16RevA.03 25-Dec-2016
                16-Jul-2023 
 ******************************************
 -------------------------------------------------
 # nmr revTPSSrevTPSS/gen scrf(solvent=chloroform)
 -------------------------------------------------
 1/38=1,172=1/1;
 2/12=2,17=6,18=5,40=1/2;
 3/5=7,11=2,25=1,30=1,70=2201,72=7,74=4840/1,2,3,8;
 4//1;
 5/5=2,38=5,53=7/2;
 8/6=1,10=90,11=11/1;
 10/13=100,45=16/2;
 6/7=2,8=2,9=2,10=2,28=1/1;
 99/9=1/99;
 -------------------
 Title Card Required
 -------------------
 Symbolic Z-matrix:
 Charge =  0 Multiplicity = 1
 C                    -1.13935  -1.49709   0.91878 
 C                    -1.57208  -0.3628    0.19241 
 C                    -0.72036   0.79267  -0.05317 
 C                    -1.97323  -2.56236   1.15016 
 C                    -2.93688  -0.3123   -0.18409 
 C                     0.72037   0.79271   0.05301 
 C                    -1.36231   2.01623  -0.32272 
 C                    -3.29366  -2.55116   0.67013 
 C                    -3.7662   -1.43565   0.02854 
 C                     1.36221   2.01629   0.3227 
 C                    -3.48831   0.90808  -0.68359 
 C                     1.57214  -0.36271  -0.19253 
 C                    -2.74732   2.03835  -0.6812 
 C                    -0.64718   3.23817  -0.20459 
 C                     0.64704   3.2382    0.20454 
 C                     2.93688  -0.31223   0.18421 
 C                     2.74719   2.03842   0.68133 
 C                     3.4882    0.90817   0.68377 
 C                     1.13951  -1.49693  -0.91905 
 C                     3.76619  -1.43559  -0.02828 
 C                     1.9734   -2.56223  -1.1503 
 C                     3.29372  -2.55106  -0.67001 
 H                    -0.13493  -1.52177   1.31942 
 H                    -1.61046  -3.41232   1.71839 
 H                    -3.94325  -3.40319   0.8404 
 H                    -4.80123  -1.38668  -0.29683 
 H                    -4.53116   0.92774  -0.98499 
 H                    -3.18915   2.98914  -0.96378 
 H                    -1.17227   4.17103  -0.38538 
 H                     1.17212   4.17108   0.38522 
 H                     3.189     2.98923   0.9639 
 H                     4.53105   0.9279    0.9852 
 H                     0.13514  -1.52155  -1.31982 
 H                     4.80123  -1.38663   0.29707 
 H                     1.61077  -3.41215  -1.71868 
 H                     3.94333  -3.4031   -0.84017 
 
                          Input orientation:                          
 ---------------------------------------------------------------------
 Center     Atomic      Atomic             Coordinates (Angstroms)
 Number     Number       Type             X           Y           Z
 ---------------------------------------------------------------------
      1          6           0       -1.139349   -1.497088    0.918775
      2          6           0       -1.572082   -0.362797    0.192410
      3          6           0       -0.720364    0.792666   -0.053169
      4          6           0       -1.973226   -2.562358    1.150155
      5          6           0       -2.936876   -0.312296   -0.184091
      6          6           0        0.720366    0.792710    0.053006
      7          6           0       -1.362311    2.016235   -0.322724
      8          6           0       -3.293659   -2.551157    0.670125
      9          6           0       -3.766198   -1.435650    0.028535
     10          6           0        1.362207    2.016295    0.322696
     11          6           0       -3.488309    0.908076   -0.683586
     12          6           0        1.572137   -0.362709   -0.192533
     13          6           0       -2.747319    2.038346   -0.681203
     14          6           0       -0.647182    3.238171   -0.204592
     15          6           0        0.647038    3.238199    0.204543
     16          6           0        2.936876   -0.312232    0.184208
     17          6           0        2.747191    2.038421    0.681326
     18          6           0        3.488203    0.908174    0.683774
     19          6           0        1.139509   -1.496931   -0.919053
     20          6           0        3.766192   -1.435585   -0.028281
     21          6           0        1.973403   -2.562225   -1.150300
     22          6           0        3.293717   -2.551057   -0.670014
     23          1           0       -0.134926   -1.521768    1.319421
     24          1           0       -1.610463   -3.412317    1.718391
     25          1           0       -3.943245   -3.403186    0.840397
     26          1           0       -4.801228   -1.386680   -0.296834
     27          1           0       -4.531157    0.927741   -0.984990
     28          1           0       -3.189148    2.989141   -0.963781
     29          1           0       -1.172267    4.171035   -0.385375
     30          1           0        1.172123    4.171084    0.385217
     31          1           0        3.189004    2.989225    0.963904
     32          1           0        4.531048    0.927902    0.985195
     33          1           0        0.135142   -1.521554   -1.319824
     34          1           0        4.801227   -1.386628    0.297072
     35          1           0        1.610770   -3.412146   -1.718675
     36          1           0        3.943329   -3.403096   -0.840167
 ---------------------------------------------------------------------
                    Distance matrix (angstroms):
                    1          2          3          4          5
     1  C    0.000000
     2  C    1.414737   0.000000
     3  C    2.522538   1.456306   0.000000
     4  C    1.372475   2.432336   3.778073   0.000000
     5  C    2.418915   1.416674   2.480122   2.787761   0.000000
     6  C    3.074292   2.570982   1.444637   4.440231   3.827881
     7  C    3.732890   2.443186   1.407792   4.848309   2.814344
     8  C    2.411211   2.825059   4.280906   1.405026   2.422700
     9  C    2.774281   2.447859   3.774808   2.396299   1.412412
    10  C    4.353958   3.779829   2.444513   5.724846   4.915413
    11  C    3.724243   2.460572   2.841173   4.207374   1.429294
    12  C    3.142289   3.167695   2.570968   4.383020   4.509303
    13  C    4.200570   2.812449   2.460628   5.011943   2.410098
    14  C    4.891509   3.738987   2.451281   6.102448   4.224800
    15  C    5.111189   4.229872   2.813687   6.434783   5.059792
    16  C    4.308025   4.509249   3.827865   5.486823   5.885287
    17  C    5.259411   4.965985   3.757037   6.608275   6.211557
    18  C    5.220608   5.240543   4.274162   6.487627   6.597301
    19  C    2.927594   3.142346   3.074270   3.886628   4.308183
    20  C    4.996502   5.449472   5.009482   5.966511   6.798322
    21  C    3.886491   4.383015   4.440199   4.568148   5.486946
    22  C    4.825679   5.404466   5.260592   5.572596   6.638408
    23  H    1.081662   2.163050   2.753788   2.119157   3.402102
    24  H    2.128247   3.410229   4.648934   1.084859   3.871555
    25  H    3.391340   3.909766   5.365687   2.164236   3.408219
    26  H    3.859955   3.422730   4.632750   3.387269   2.154720
    27  H    4.583501   3.436260   3.925389   4.825209   2.172755
    28  H    5.279389   3.897072   3.427625   6.063525   3.401624
    29  H    5.816314   4.587954   3.424610   6.952551   4.822304
    30  H    6.144572   5.303198   3.897101   7.471117   6.108083
    31  H    6.234074   5.873601   4.598094   7.583098   7.052967
    32  H    6.167527   6.288291   5.354794   7.383408   7.659975
    33  H    2.576092   2.558160   2.773431   3.410174   3.491345
    34  H    5.974040   6.455870   5.946424   6.928442   7.827129
    35  H    4.264592   4.804302   5.088078   4.668763   5.713589
    36  H    5.706169   6.381958   6.322485   6.298718   7.571044
                    6          7          8          9         10
     6  C    0.000000
     7  C    2.444531   0.000000
     8  C    5.260673   5.057363   0.000000
     9  C    5.009535   4.221086   1.370871   0.000000
    10  C    1.407783   2.799922   6.531417   6.188941   0.000000
    11  C    4.274204   2.424480   3.719774   2.465236   5.076245
    12  C    1.456295   3.779856   5.404577   5.449577   2.443193
    13  C    3.757062   1.430819   4.815404   3.689240   4.230426
    14  C    2.813685   1.420737   6.425363   5.623808   2.410116
    15  C    2.451277   2.410122   7.018725   6.430591   1.420731
    16  C    2.480126   4.915460   6.638408   6.798346   2.814391
    17  C    2.460610   4.230439   7.586582   7.410772   1.430834
    18  C    2.841148   5.076251   7.613200   7.651744   2.424493
    19  C    2.522506   4.353969   4.825957   4.996763   3.732866
    20  C    3.774780   6.188966   7.181488   7.532604   4.221114
    21  C    3.778047   5.724873   5.572792   5.966728   4.848311
    22  C    4.280849   6.531414   6.722313   7.181539   5.057362
    23  H    2.773471   4.089081   3.385088   3.854859   3.968974
    24  H    5.088077   5.804904   2.161853   3.377872   6.344648
    25  H    6.322562   6.114262   1.084854   2.135805   7.601750
    26  H    5.946438   4.838042   2.136301   1.086071   7.067672
    27  H    5.354826   3.415406   4.046423   2.682911   6.134063
    28  H    4.598094   2.166756   5.777151   4.571264   4.828694
    29  H    3.897091   2.164071   7.127570   6.191504   3.401151
    30  H    3.424596   3.401163   8.075451   7.479953   2.164060
    31  H    3.427621   4.828725   8.532705   8.296341   2.166778
    32  H    3.925373   6.134069   8.569082   8.680200   3.415415
    33  H    2.753719   3.968945   4.095932   4.128669   4.089002
    34  H    4.632765   7.067731   8.186726   8.571773   4.838119
    35  H    4.648923   6.344699   5.522779   5.989246   5.804907
    36  H    5.365635   7.601757   7.441826   8.003892   6.114265
                   11         12         13         14         15
    11  C    0.000000
    12  C    5.240624   0.000000
    13  C    1.351511   4.966041   0.000000
    14  C    3.705507   4.229877   2.465221   0.000000
    15  C    4.829010   3.738986   3.707540   1.357349   0.000000
    16  C    6.597365   1.416684   6.211620   5.059842   4.224847
    17  C    6.482447   2.812438   5.660930   3.707562   2.465245
    18  C    7.109247   2.460562   6.482452   4.829026   3.705523
    19  C    5.220747   1.414729   5.259486   5.111155   4.891467
    20  C    7.651794   2.447840   7.410825   6.430626   5.623841
    21  C    6.487766   2.432325   6.608368   6.434782   6.102439
    22  C    7.613256   2.825012   7.586624   7.018722   6.425360
    23  H    4.600147   2.558024   4.847835   5.024146   4.950930
    24  H    5.287872   4.804236   6.063021   6.989618   7.184526
    25  H    4.595266   6.382075   5.775446   7.487567   8.098333
    26  H    2.671935   6.455941   4.012117   6.217222   7.164111
    27  H    1.085709   6.288358   2.123160   4.586106   5.793696
    28  H    2.121046   5.873632   1.085852   2.664578   4.017877
    29  H    4.012466   5.303185   2.667708   1.085648   2.127923
    30  H    5.788712   4.587928   4.587793   2.127927   1.085648
    31  H    7.185535   3.897059   6.233015   4.017920   2.664622
    32  H    8.191173   3.436259   7.548814   5.793704   4.586112
    33  H    4.408775   2.163021   4.624857   4.950834   5.024040
    34  H    8.657007   3.422739   8.346737   7.164188   6.217304
    35  H    6.762864   3.410230   7.055292   7.184533   6.989609
    36  H    8.593018   3.909723   8.625505   8.098344   7.487573
                   16         17         18         19         20
    16  C    0.000000
    17  C    2.410120   0.000000
    18  C    1.429307   1.351504   0.000000
    19  C    2.418930   4.200544   3.724238   0.000000
    20  C    1.412388   3.689258   2.465260   2.774293   0.000000
    21  C    2.787770   5.011940   4.207388   1.372482   2.396317
    22  C    2.422678   4.815404   3.719791   2.411185   1.370887
    23  H    3.491082   4.624793   4.408597   2.575959   4.128250
    24  H    5.713365   7.055154   6.762653   4.264641   5.988886
    25  H    7.571040   8.625446   8.592949   5.706475   8.003841
    26  H    7.827138   8.346661   8.656940   5.974250   8.571767
    27  H    7.660031   7.548812   8.191172   6.167644   8.680242
    28  H    7.053022   6.233006   7.185533   6.234109   8.296392
    29  H    6.108123   4.587815   5.788724   6.144506   7.479979
    30  H    4.822331   2.667728   4.012474   5.816234   6.191519
    31  H    3.401634   1.085853   2.121029   5.279352   4.571271
    32  H    2.172762   2.123143   1.085712   4.583504   2.682948
    33  H    3.402100   4.847765   4.600109   1.081655   3.854867
    34  H    2.154732   4.012191   2.672019   3.859962   1.086070
    35  H    3.871561   6.063014   5.287881   2.128269   3.377879
    36  H    3.408186   5.775448   4.595279   3.391326   2.135799
                   21         22         23         24         25
    21  C    0.000000
    22  C    1.405001   0.000000
    23  H    3.409857   4.095471   0.000000
    24  H    4.668634   5.522430   2.431165   0.000000
    25  H    6.298953   7.441847   4.274633   2.492555   0.000000
    26  H    6.928632   8.186768   4.940132   4.283144   2.468952
    27  H    7.383528   8.569125   5.535093   5.888533   4.736518
    28  H    7.583165   8.532739   5.906741   7.117932   6.684726
    29  H    7.471087   8.075429   6.032447   7.881946   8.157797
    30  H    6.952504   7.127542   5.915207   8.187070   9.151161
    31  H    6.063509   5.777143   5.614620   8.036409   9.578473
    32  H    4.825233   4.046463   5.280521   7.556007   9.518032
    33  H    2.119183   3.385074   2.653027   3.981567   4.984008
    34  H    3.387256   2.136290   5.042724   6.872651   8.990411
    35  H    1.084859   2.161822   3.981333   4.710601   6.115228
    36  H    2.164222   1.084859   4.983511   6.114811   8.063643
                   26         27         28         29         30
    26  H    0.000000
    27  H    2.429618   0.000000
    28  H    4.710778   2.459839   0.000000
    29  H    6.638177   4.707508   2.408160   0.000000
    30  H    8.187482   6.702548   4.715662   2.467788   0.000000
    31  H    9.196837   8.224888   6.663092   4.715709   2.408211
    32  H    9.700117   9.273898   8.224879   6.702550   4.707503
    33  H    5.043059   5.280673   5.614627   5.915073   6.032298
    34  H    9.620804   9.700174   9.196912   8.187550   6.638247
    35  H    6.872981   7.556201   8.036514   8.187040   7.881887
    36  H    8.990463   9.518090   9.578528   9.151154   8.157779
                   31         32         33         34         35
    31  H    0.000000
    32  H    2.459794   0.000000
    33  H    5.906658   5.535064   0.000000
    34  H    4.710840   2.429724   4.940132   0.000000
    35  H    7.117907   5.888544   2.431234   4.283103   0.000000
    36  H    6.684717   4.736550   4.274641   2.468895   2.492527
                   36
    36  H    0.000000
 Stoichiometry    C22H14
 Framework group  C1[X(C22H14)]
 Deg. of freedom   102
 Full point group                 C1      NOp   1
 Largest Abelian subgroup         C1      NOp   1
 Largest concise Abelian subgroup C1      NOp   1
                         Standard orientation:                         
 ---------------------------------------------------------------------
 Center     Atomic      Atomic             Coordinates (Angstroms)
 Number     Number       Type             X           Y           Z
 ---------------------------------------------------------------------
      1          6           0        1.139349   -1.497088   -0.918775
      2          6           0        1.572082   -0.362797   -0.192410
      3          6           0        0.720364    0.792666    0.053169
      4          6           0        1.973226   -2.562358   -1.150155
      5          6           0        2.936876   -0.312296    0.184091
      6          6           0       -0.720366    0.792710   -0.053006
      7          6           0        1.362311    2.016235    0.322724
      8          6           0        3.293659   -2.551157   -0.670125
      9          6           0        3.766198   -1.435650   -0.028535
     10          6           0       -1.362207    2.016295   -0.322696
     11          6           0        3.488309    0.908076    0.683586
     12          6           0       -1.572137   -0.362709    0.192533
     13          6           0        2.747319    2.038346    0.681203
     14          6           0        0.647182    3.238171    0.204592
     15          6           0       -0.647038    3.238199   -0.204543
     16          6           0       -2.936876   -0.312232   -0.184208
     17          6           0       -2.747191    2.038421   -0.681326
     18          6           0       -3.488203    0.908174   -0.683774
     19          6           0       -1.139509   -1.496931    0.919053
     20          6           0       -3.766192   -1.435585    0.028281
     21          6           0       -1.973403   -2.562225    1.150300
     22          6           0       -3.293717   -2.551057    0.670014
     23          1           0        0.134926   -1.521768   -1.319421
     24          1           0        1.610463   -3.412317   -1.718391
     25          1           0        3.943245   -3.403186   -0.840397
     26          1           0        4.801228   -1.386680    0.296834
     27          1           0        4.531157    0.927741    0.984990
     28          1           0        3.189148    2.989141    0.963781
     29          1           0        1.172267    4.171035    0.385375
     30          1           0       -1.172123    4.171084   -0.385217
     31          1           0       -3.189004    2.989225   -0.963904
     32          1           0       -4.531048    0.927902   -0.985195
     33          1           0       -0.135142   -1.521554    1.319824
     34          1           0       -4.801227   -1.386628   -0.297072
     35          1           0       -1.610770   -3.412146    1.718675
     36          1           0       -3.943329   -3.403096    0.840167
 ---------------------------------------------------------------------
 Rotational constants (GHZ):           0.4503970           0.2830794           0.1874452
 General basis read from cards:  (5D, 7F)
 There are   400 symmetry adapted cartesian basis functions of A   symmetry.
 There are   378 symmetry adapted basis functions of A   symmetry.
   378 basis functions,   670 primitive gaussians,   400 cartesian basis functions
    73 alpha electrons       73 beta electrons
       nuclear repulsion energy      1607.8715194182 Hartrees.
 NAtoms=   36 NActive=   36 NUniq=   36 SFac= 1.00D+00 NAtFMM=   60 NAOKFM=F Big=F
 Integral buffers will be    131072 words long.
 Raffenetti 2 integral format.
 Two-electron integral symmetry is turned on.
 ------------------------------------------------------------------------------
 Polarizable Continuum Model (PCM)
 =================================
 Model                : PCM.
 Atomic radii         : UFF (Universal Force Field).
 Polarization charges : Total charges.
 Charge compensation  : None.
 Solution method      : On-the-fly selection.
 Cavity type          : Scaled VdW (van der Waals Surface) (Alpha=1.100).
 Cavity algorithm     : GePol (No added spheres)
                        Default sphere list used, NSphG=   36.
                        Lebedev-Laikov grids with approx.  5.0 points / Ang**2.
                        Smoothing algorithm: York/Karplus (Gamma=1.0000).
                        Polarization charges: spherical gaussians, with
                                              point-specific exponents (IZeta= 3).
                        Self-potential: point-specific (ISelfS= 7).
                        Self-field    : sphere-specific E.n sum rule (ISelfD= 2).
 Solvent              : Chloroform, Eps=   4.711300 Eps(inf)=   2.090627
 ------------------------------------------------------------------------------
 One-electron integrals computed using PRISM.
 NBasis=   378 RedAO= T EigKep=  1.18D-04  NBF=   378
 NBsUse=   378 1.00D-06 EigRej= -1.00D+00 NBFU=   378
 ExpMin= 1.06D-01 ExpMax= 1.24D+03 ExpMxC= 1.87D+02 IAcc=3 IRadAn=         5 AccDes= 0.00D+00
 Harris functional with IExCor= 1009 and IRadAn=       5 diagonalized for initial guess.
 HarFok:  IExCor= 1009 AccDes= 0.00D+00 IRadAn=         5 IDoV= 1 UseB2=F ITyADJ=14
 ICtDFT=  3500011 ScaDFX=  1.000000  1.000000  1.000000  1.000000
 FoFCou: FMM=F IPFlag=           0 FMFlag=      100000 FMFlg1=           0
         NFxFlg=           0 DoJE=T BraDBF=F KetDBF=T FulRan=T
         wScrn=  0.000000 ICntrl=       500 IOpCl=  0 I1Cent=   200000004 NGrid=           0
         NMat0=    1 NMatS0=      1 NMatT0=    0 NMatD0=    1 NMtDS0=    0 NMtDT0=    0
 Petite list used in FoFCou.
 Requested convergence on RMS density matrix=1.00D-08 within 128 cycles.
 Requested convergence on MAX density matrix=1.00D-06.
 Requested convergence on             energy=1.00D-06.
 No special actions if energy rises.
 Inv3:  Mode=1 IEnd=    21035712.
 Iteration    1 A*A^-1 deviation from unit magnitude is 3.33D-15 for    737.
 Iteration    1 A*A^-1 deviation from orthogonality  is 2.11D-15 for   2374   2147.
 Iteration    1 A^-1*A deviation from unit magnitude is 3.33D-15 for    229.
 Iteration    1 A^-1*A deviation from orthogonality  is 1.87D-15 for   1706    379.
 Error on total polarization charges =  0.01526
 SCF Done:  E(RrevTPSS-revTPSS) =  -846.572788944     A.U. after   13 cycles
            NFock= 13  Conv=0.81D-08     -V/T= 2.0041
 DoSCS=F DFT=T ScalE2(SS,OS)=  1.000000  1.000000
 Range of M.O.s used for correlation:     1   378
 NBasis=   378 NAE=    73 NBE=    73 NFC=     0 NFV=     0
 NROrb=    378 NOA=    73 NOB=    73 NVA=   305 NVB=   305

 **** Warning!!: The largest alpha MO coefficient is  0.17273790D+02

 NEqPCM:  Using equilibrium solvation (IEInf=0, Eps=   4.7113, EpsInf=   2.0906)
          Differentiating once with respect to magnetic field using GIAOs.
          Electric field/nuclear overlap derivatives assumed to be zero.
 FoFJK:  IHMeth= 1 ICntrl=    6127 DoSepK=F KAlg= 0 I1Cent=           0 FoldK=F
 IRaf=         1 NMat=       1 IRICut=       1 DoRegI=T DoRafI=F ISym2E= 0 IDoP0=0 IntGTp=1.
          There are     3 degrees of freedom in the 1st order CPHF.  IDoFFX=0 NUNeed=     3.
      3 vectors produced by pass  0 Test12= 7.42D-13 3.33D-08 XBig12= 1.32D+02 4.96D+00.
 AX will form     3 AO Fock derivatives at one time.
 InvSVY:  IOpt=1 It=  1 EMax= 0.00D+00
 Solved reduced A of dimension     3 with     3 vectors.
 Calculating GIAO nuclear magnetic shielding tensors.
 SCF GIAO Magnetic shielding tensor (ppm):
      1  C    Isotropic =    66.0703   Anisotropy =   166.1412
   XX=     5.9401   YX=     8.8043   ZX=   -63.3718
   XY=     8.0664   YY=    63.1611   ZY=   -53.2844
   XZ=   -71.0911   YZ=   -38.2428   ZZ=   129.1096
   Eigenvalues:   -25.1374    46.5172   176.8311
      2  C    Isotropic =    62.4440   Anisotropy =   180.8002
   XX=    15.8683   YX=    19.7167   ZX=   -32.9940
   XY=    34.4116   YY=    23.6920   ZY=   -66.3680
   XZ=   -51.4520   YZ=   -43.2586   ZZ=   147.7717
   Eigenvalues:    -7.7935    12.1479   182.9775
      3  C    Isotropic =    65.8215   Anisotropy =   172.6696
   XX=    11.6079   YX=     1.9878   ZX=    -8.9451
   XY=    17.5836   YY=    13.7833   ZY=   -28.5454
   XZ=   -60.6835   YZ=    -1.1207   ZZ=   172.0732
   Eigenvalues:     0.6618    15.8681   180.9346
      4  C    Isotropic =    70.3976   Anisotropy =   164.4321
   XX=    55.6641   YX=    -6.0804   ZX=   -49.4345
   XY=    -9.9299   YY=    32.9868   ZY=   -76.9943
   XZ=   -47.7484   YZ=   -79.4542   ZZ=   122.5420
   Eigenvalues:   -25.6373    56.8112   180.0190
      5  C    Isotropic =    61.8375   Anisotropy =   191.8428
   XX=     9.5145   YX=    15.4656   ZX=   -41.6510
   XY=     8.7009   YY=    16.6608   ZY=   -55.9568
   XZ=   -40.0934   YZ=   -59.2139   ZZ=   159.3372
   Eigenvalues:    -4.7823     0.5621   189.7327
      6  C    Isotropic =    65.8221   Anisotropy =   172.6709
   XX=    11.6107   YX=    -1.9865   ZX=    -8.9536
   XY=   -17.5882   YY=    13.7852   ZY=    28.5547
   XZ=   -60.6941   YZ=     1.1139   ZZ=   172.0702
   Eigenvalues:     0.6609    15.8693   180.9360
      7  C    Isotropic =    61.7951   Anisotropy =   186.4269
   XX=     1.7852   YX=     8.5361   ZX=   -47.1943
   XY=     3.6066   YY=     7.4528   ZY=   -14.9815
   XZ=   -30.1284   YZ=   -18.5322   ZZ=   176.1473
   Eigenvalues:    -6.8820     6.1876   186.0797
      8  C    Isotropic =    68.3701   Anisotropy =   167.8446
   XX=    29.3444   YX=    56.0919   ZX=   -26.0820
   XY=    53.5649   YY=    29.6936   ZY=   -50.5113
   XZ=   -25.9492   YZ=   -55.1928   ZZ=   146.0724
   Eigenvalues:   -27.7522    52.5961   180.2665
      9  C    Isotropic =    66.5841   Anisotropy =   147.4695
   XX=   -11.7728   YX=    17.6317   ZX=   -46.9446
   XY=    19.1878   YY=    73.9483   ZY=   -35.1208
   XZ=   -38.1453   YZ=   -33.9913   ZZ=   137.5767
   Eigenvalues:   -23.9370    58.7921   164.8970
     10  C    Isotropic =    61.7956   Anisotropy =   186.4266
   XX=     1.7898   YX=    -8.5381   ZX=   -47.2110
   XY=    -3.6104   YY=     7.4544   ZY=    14.9892
   XZ=   -30.1305   YZ=    18.5313   ZZ=   176.1425
   Eigenvalues:    -6.8821     6.1888   186.0800
     11  C    Isotropic =    66.3839   Anisotropy =   141.5782
   XX=    -4.5940   YX=    -9.6453   ZX=   -50.7376
   XY=   -17.2324   YY=    61.0127   ZY=   -26.2735
   XZ=   -39.2814   YZ=   -28.8257   ZZ=   142.7330
   Eigenvalues:   -22.4252    60.8076   160.7694
     12  C    Isotropic =    62.4434   Anisotropy =   180.8043
   XX=    15.8764   YX=   -19.7272   ZX=   -33.0180
   XY=   -34.4286   YY=    23.6950   ZY=    66.3724
   XZ=   -51.4635   YZ=    43.2529   ZZ=   147.7589
   Eigenvalues:    -7.8002    12.1508   182.9796
     13  C    Isotropic =    68.0597   Anisotropy =   137.9710
   XX=    37.7255   YX=   -37.1897   ZX=   -38.7097
   XY=   -31.6965   YY=    21.8647   ZY=   -34.2907
   XZ=   -34.1362   YZ=   -34.8715   ZZ=   144.5889
   Eigenvalues:   -20.5794    64.7181   160.0404
     14  C    Isotropic =    66.9682   Anisotropy =   140.0436
   XX=    61.0366   YX=   -20.7588   ZX=   -30.4010
   XY=   -24.7903   YY=   -12.9203   ZY=   -11.7033
   XZ=   -24.0407   YZ=    -8.1098   ZZ=   152.7883
   Eigenvalues:   -21.0846    61.6587   160.3306
     15  C    Isotropic =    66.9702   Anisotropy =   140.0434
   XX=    61.0408   YX=    20.7567   ZX=   -30.3969
   XY=    24.7895   YY=   -12.9210   ZY=    11.6931
   XZ=   -24.0427   YZ=     8.1060   ZZ=   152.7909
   Eigenvalues:   -21.0827    61.6609   160.3325
     16  C    Isotropic =    61.8377   Anisotropy =   191.8436
   XX=     9.5236   YX=   -15.4739   ZX=   -41.6768
   XY=    -8.7061   YY=    16.6630   ZY=    55.9558
   XZ=   -40.1031   YZ=    59.2169   ZZ=   159.3265
   Eigenvalues:    -4.7827     0.5624   189.7334
     17  C    Isotropic =    68.0588   Anisotropy =   137.9710
   XX=    37.7316   YX=    37.1828   ZX=   -38.7183
   XY=    31.6967   YY=    21.8625   ZY=    34.2945
   XZ=   -34.1407   YZ=    34.8775   ZZ=   144.5824
   Eigenvalues:   -20.5801    64.7171   160.0395
     18  C    Isotropic =    66.3843   Anisotropy =   141.5765
   XX=    -4.5858   YX=     9.6490   ZX=   -50.7443
   XY=    17.2309   YY=    61.0118   ZY=    26.2757
   XZ=   -39.2904   YZ=    28.8276   ZZ=   142.7269
   Eigenvalues:   -22.4239    60.8081   160.7687
     19  C    Isotropic =    66.0675   Anisotropy =   166.1446
   XX=     5.9607   YX=    -8.8255   ZX=   -63.3902
   XY=    -8.0837   YY=    63.1667   ZY=    53.2834
   XZ=   -71.1201   YZ=    38.2501   ZZ=   129.0751
   Eigenvalues:   -25.1412    46.5131   176.8306
     20  C    Isotropic =    66.5863   Anisotropy =   147.4726
   XX=   -11.7613   YX=   -17.6392   ZX=   -46.9562
   XY=   -19.1924   YY=    73.9526   ZY=    35.1197
   XZ=   -38.1680   YZ=    33.9958   ZZ=   137.5677
   Eigenvalues:   -23.9355    58.7931   164.9014
     21  C    Isotropic =    70.4003   Anisotropy =   164.4335
   XX=    55.6841   YX=     6.0639   ZX=   -49.4540
   XY=     9.9095   YY=    32.9950   ZY=    77.0020
   XZ=   -47.7566   YZ=    79.4540   ZZ=   122.5217
   Eigenvalues:   -25.6330    56.8113   180.0226
     22  C    Isotropic =    68.3679   Anisotropy =   167.8470
   XX=    29.3501   YX=   -56.1074   ZX=   -26.1040
   XY=   -53.5704   YY=    29.6950   ZY=    50.5033
   XZ=   -25.9553   YZ=    55.1982   ZZ=   146.0587
   Eigenvalues:   -27.7568    52.5947   180.2660
     23  H    Isotropic =    23.5123   Anisotropy =    12.6837
   XX=    26.3153   YX=    -2.8462   ZX=    -1.4117
   XY=    -4.3394   YY=    25.8781   ZY=     3.3955
   XZ=    -5.8835   YZ=     5.0679   ZZ=    18.3435
   Eigenvalues:    16.0317    22.5371    31.9681
     24  H    Isotropic =    24.6550   Anisotropy =     6.6569
   XX=    27.1769   YX=    -2.3727   ZX=     0.7352
   XY=    -2.5123   YY=    25.1749   ZY=     1.3960
   XZ=    -0.3546   YZ=     3.9888   ZZ=    21.6132
   Eigenvalues:    19.9020    24.9700    29.0929
     25  H    Isotropic =    24.3757   Anisotropy =     3.9465
   XX=    26.2122   YX=     0.0873   ZX=     1.8197
   XY=    -0.1351   YY=    25.5680   ZY=     1.8354
   XZ=     1.1298   YZ=     2.3532   ZZ=    21.3469
   Eigenvalues:    20.1699    25.9505    27.0067
     26  H    Isotropic =    23.9456   Anisotropy =     6.1467
   XX=    24.7644   YX=    -0.9028   ZX=     1.3555
   XY=    -0.8265   YY=    27.2004   ZY=     2.3030
   XZ=     0.5893   YZ=     2.6133   ZZ=    19.8719
   Eigenvalues:    18.8848    24.9086    28.0434
     27  H    Isotropic =    23.9648   Anisotropy =     6.0618
   XX=    24.7857   YX=    -0.7908   ZX=     1.4366
   XY=    -1.0788   YY=    27.6126   ZY=     1.6941
   XZ=     2.0746   YZ=     1.2448   ZZ=    19.4959
   Eigenvalues:    18.6514    25.2369    28.0060
     28  H    Isotropic =    24.0417   Anisotropy =     6.3713
   XX=    26.8796   YX=    -1.4232   ZX=     1.9205
   XY=    -1.3371   YY=    26.3327   ZY=     0.6856
   XZ=     2.4124   YZ=    -0.2701   ZZ=    18.9129
   Eigenvalues:    18.3244    25.5115    28.2893
     29  H    Isotropic =    24.0230   Anisotropy =     6.4580
   XX=    26.9152   YX=    -1.2078   ZX=     2.1191
   XY=    -1.2025   YY=    25.9610   ZY=     0.0409
   XZ=     3.4697   YZ=     0.3265   ZZ=    19.1930
   Eigenvalues:    18.2486    25.4922    28.3284
     30  H    Isotropic =    24.0231   Anisotropy =     6.4580
   XX=    26.9151   YX=     1.2074   ZX=     2.1194
   XY=     1.2026   YY=    25.9611   ZY=    -0.0414
   XZ=     3.4697   YZ=    -0.3258   ZZ=    19.1929
   Eigenvalues:    18.2485    25.4923    28.3284
     31  H    Isotropic =    24.0418   Anisotropy =     6.3713
   XX=    26.8793   YX=     1.4228   ZX=     1.9211
   XY=     1.3373   YY=    26.3329   ZY=    -0.6858
   XZ=     2.4133   YZ=     0.2706   ZZ=    18.9133
   Eigenvalues:    18.3244    25.5117    28.2893
     32  H    Isotropic =    23.9648   Anisotropy =     6.0620
   XX=    24.7856   YX=     0.7911   ZX=     1.4375
   XY=     1.0788   YY=    27.6128   ZY=    -1.6944
   XZ=     2.0750   YZ=    -1.2444   ZZ=    19.4960
   Eigenvalues:    18.6510    25.2371    28.0061
     33  H    Isotropic =    23.5121   Anisotropy =    12.6816
   XX=    26.3132   YX=     2.8462   ZX=    -1.4107
   XY=     4.3385   YY=    25.8780   ZY=    -3.3952
   XZ=    -5.8819   YZ=    -5.0685   ZZ=    18.3450
   Eigenvalues:    16.0332    22.5366    31.9665
     34  H    Isotropic =    23.9455   Anisotropy =     6.1465
   XX=    24.7642   YX=     0.9032   ZX=     1.3567
   XY=     0.8261   YY=    27.2001   ZY=    -2.3032
   XZ=     0.5891   YZ=    -2.6136   ZZ=    19.8722
   Eigenvalues:    18.8847    24.9086    28.0431
     35  H    Isotropic =    24.6548   Anisotropy =     6.6559
   XX=    27.1760   YX=     2.3730   ZX=     0.7358
   XY=     2.5123   YY=    25.1744   ZY=    -1.3956
   XZ=    -0.3533   YZ=    -3.9888   ZZ=    21.6140
   Eigenvalues:    19.9023    24.9701    29.0921
     36  H    Isotropic =    24.3755   Anisotropy =     3.9467
   XX=    26.2113   YX=    -0.0872   ZX=     1.8204
   XY=     0.1357   YY=    25.5679   ZY=    -1.8357
   XZ=     1.1314   YZ=    -2.3531   ZZ=    21.3473
   Eigenvalues:    20.1696    25.9503    27.0067
 End of Minotr F.D. properties file   721 does not exist.
 End of Minotr F.D. properties file   722 does not exist.
 End of Minotr F.D. properties file   788 does not exist.

 **********************************************************************

            Population analysis using the SCF density.

 **********************************************************************

 Orbital symmetries:
       Occupied  (A) (A) (A) (A) (A) (A) (A) (A) (A) (A) (A) (A)
                 (A) (A) (A) (A) (A) (A) (A) (A) (A) (A) (A) (A)
                 (A) (A) (A) (A) (A) (A) (A) (A) (A) (A) (A) (A)
                 (A) (A) (A) (A) (A) (A) (A) (A) (A) (A) (A) (A)
                 (A) (A) (A) (A) (A) (A) (A) (A) (A) (A) (A) (A)
                 (A) (A) (A) (A) (A) (A) (A) (A) (A) (A) (A) (A)
                 (A)
       Virtual   (A) (A) (A) (A) (A) (A) (A) (A) (A) (A) (A) (A)
                 (A) (A) (A) (A) (A) (A) (A) (A) (A) (A) (A) (A)
                 (A) (A) (A) (A) (A) (A) (A) (A) (A) (A) (A) (A)
                 (A) (A) (A) (A) (A) (A) (A) (A) (A) (A) (A) (A)
                 (A) (A) (A) (A) (A) (A) (A) (A) (A) (A) (A) (A)
                 (A) (A) (A) (A) (A) (A) (A) (A) (A) (A) (A) (A)
                 (A) (A) (A) (A) (A) (A) (A) (A) (A) (A) (A) (A)
                 (A) (A) (A) (A) (A) (A) (A) (A) (A) (A) (A) (A)
                 (A) (A) (A) (A) (A) (A) (A) (A) (A) (A) (A) (A)
                 (A) (A) (A) (A) (A) (A) (A) (A) (A) (A) (A) (A)
                 (A) (A) (A) (A) (A) (A) (A) (A) (A) (A) (A) (A)
                 (A) (A) (A) (A) (A) (A) (A) (A) (A) (A) (A) (A)
                 (A) (A) (A) (A) (A) (A) (A) (A) (A) (A) (A) (A)
                 (A) (A) (A) (A) (A) (A) (A) (A) (A) (A) (A) (A)
                 (A) (A) (A) (A) (A) (A) (A) (A) (A) (A) (A) (A)
                 (A) (A) (A) (A) (A) (A) (A) (A) (A) (A) (A) (A)
                 (A) (A) (A) (A) (A) (A) (A) (A) (A) (A) (A) (A)
                 (A) (A) (A) (A) (A) (A) (A) (A) (A) (A) (A) (A)
                 (A) (A) (A) (A) (A) (A) (A) (A) (A) (A) (A) (A)
                 (A) (A) (A) (A) (A) (A) (A) (A) (A) (A) (A) (A)
                 (A) (A) (A) (A) (A) (A) (A) (A) (A) (A) (A) (A)
                 (A) (A) (A) (A) (A) (A) (A) (A) (A) (A) (A) (A)
                 (A) (A) (A) (A) (A) (A) (A) (A) (A) (A) (A) (A)
                 (A) (A) (A) (A) (A) (A) (A) (A) (A) (A) (A) (A)
                 (A) (A) (A) (A) (A) (A) (A) (A) (A) (A) (A) (A)
                 (A) (A) (A) (A) (A)
 The electronic state is 1-A.
 Alpha  occ. eigenvalues --  -10.03600 -10.03573 -10.03181 -10.03181 -10.02949
 Alpha  occ. eigenvalues --  -10.02948 -10.02729 -10.02729 -10.02238 -10.02192
 Alpha  occ. eigenvalues --  -10.02191 -10.02183 -10.02128 -10.02128 -10.02013
 Alpha  occ. eigenvalues --  -10.02013 -10.01933 -10.01931 -10.01914 -10.01913
 Alpha  occ. eigenvalues --  -10.01836 -10.01836  -0.84643  -0.82523  -0.80445
 Alpha  occ. eigenvalues --   -0.77744  -0.75350  -0.74181  -0.71731  -0.70427
 Alpha  occ. eigenvalues --   -0.69352  -0.67735  -0.66952  -0.60161  -0.59771
 Alpha  occ. eigenvalues --   -0.57584  -0.57240  -0.57102  -0.54113  -0.51695
 Alpha  occ. eigenvalues --   -0.49576  -0.49188  -0.46498  -0.46428  -0.45816
 Alpha  occ. eigenvalues --   -0.43343  -0.42755  -0.41982  -0.40186  -0.40004
 Alpha  occ. eigenvalues --   -0.39832  -0.39138  -0.38793  -0.38344  -0.37378
 Alpha  occ. eigenvalues --   -0.36745  -0.36654  -0.35576  -0.33964  -0.33758
 Alpha  occ. eigenvalues --   -0.33342  -0.31734  -0.31518  -0.31027  -0.29674
 Alpha  occ. eigenvalues --   -0.29370  -0.28009  -0.27119  -0.26117  -0.24064
 Alpha  occ. eigenvalues --   -0.21835  -0.20227  -0.19817
 Alpha virt. eigenvalues --   -0.08372  -0.08215  -0.05818  -0.03793  -0.01729
 Alpha virt. eigenvalues --   -0.00323   0.01221   0.04274   0.04964   0.05106
 Alpha virt. eigenvalues --    0.05668   0.06293   0.07152   0.08299   0.08422
 Alpha virt. eigenvalues --    0.09374   0.10040   0.10544   0.11182   0.12406
 Alpha virt. eigenvalues --    0.13458   0.13739   0.14028   0.16073   0.16093
 Alpha virt. eigenvalues --    0.17314   0.20250   0.21233   0.21708   0.22210
 Alpha virt. eigenvalues --    0.22985   0.23593   0.25180   0.25595   0.26282
 Alpha virt. eigenvalues --    0.26345   0.26583   0.28468   0.29140   0.30513
 Alpha virt. eigenvalues --    0.31411   0.35394   0.35911   0.36816   0.37356
 Alpha virt. eigenvalues --    0.37884   0.38283   0.38874   0.39103   0.39706
 Alpha virt. eigenvalues --    0.39729   0.40296   0.40315   0.41512   0.41613
 Alpha virt. eigenvalues --    0.43092   0.43455   0.44007   0.44411   0.45065
 Alpha virt. eigenvalues --    0.45320   0.45730   0.46246   0.46797   0.47496
 Alpha virt. eigenvalues --    0.47641   0.48122   0.48283   0.48524   0.49211
 Alpha virt. eigenvalues --    0.49214   0.50310   0.50313   0.50964   0.51213
 Alpha virt. eigenvalues --    0.52272   0.52337   0.52653   0.53174   0.53642
 Alpha virt. eigenvalues --    0.53703   0.55077   0.55243   0.56560   0.57814
 Alpha virt. eigenvalues --    0.58876   0.59327   0.60745   0.60880   0.61274
 Alpha virt. eigenvalues --    0.61687   0.62242   0.62786   0.63090   0.65137
 Alpha virt. eigenvalues --    0.65401   0.66186   0.67715   0.68769   0.68917
 Alpha virt. eigenvalues --    0.69240   0.69425   0.69833   0.71006   0.72236
 Alpha virt. eigenvalues --    0.75168   0.75962   0.80435   0.80562   0.82738
 Alpha virt. eigenvalues --    0.83014   0.84430   0.85682   0.85771   0.86896
 Alpha virt. eigenvalues --    0.87351   0.88352   0.88498   0.90901   0.92246
 Alpha virt. eigenvalues --    0.93205   0.93612   0.95487   0.96548   0.97664
 Alpha virt. eigenvalues --    0.98742   0.99336   1.01146   1.02712   1.03545
 Alpha virt. eigenvalues --    1.06213   1.07042   1.08160   1.09455   1.10887
 Alpha virt. eigenvalues --    1.13135   1.13944   1.14390   1.15873   1.18218
 Alpha virt. eigenvalues --    1.19271   1.20196   1.23406   1.24083   1.24853
 Alpha virt. eigenvalues --    1.26287   1.26997   1.28504   1.29147   1.30726
 Alpha virt. eigenvalues --    1.32144   1.32312   1.32999   1.34816   1.34961
 Alpha virt. eigenvalues --    1.36203   1.36364   1.38123   1.38601   1.39482
 Alpha virt. eigenvalues --    1.40217   1.42115   1.42143   1.45954   1.48161
 Alpha virt. eigenvalues --    1.51557   1.52431   1.52636   1.55941   1.56029
 Alpha virt. eigenvalues --    1.58106   1.60478   1.62850   1.64921   1.65442
 Alpha virt. eigenvalues --    1.67072   1.69066   1.69236   1.71314   1.74145
 Alpha virt. eigenvalues --    1.74576   1.76060   1.76251   1.77186   1.79398
 Alpha virt. eigenvalues --    1.79957   1.80285   1.81035   1.81205   1.82017
 Alpha virt. eigenvalues --    1.84519   1.85378   1.86207   1.87327   1.87925
 Alpha virt. eigenvalues --    1.89139   1.89203   1.89853   1.90273   1.90799
 Alpha virt. eigenvalues --    1.92387   1.92592   1.93656   1.95364   1.96257
 Alpha virt. eigenvalues --    1.97896   1.98002   2.05518   2.06011   2.10442
 Alpha virt. eigenvalues --    2.10656   2.10953   2.12452   2.13764   2.14524
 Alpha virt. eigenvalues --    2.15228   2.16291   2.16570   2.19586   2.20003
 Alpha virt. eigenvalues --    2.20672   2.21807   2.23710   2.23725   2.24319
 Alpha virt. eigenvalues --    2.24544   2.24984   2.25515   2.27853   2.28631
 Alpha virt. eigenvalues --    2.29158   2.29287   2.30144   2.31436   2.31929
 Alpha virt. eigenvalues --    2.32319   2.32982   2.34109   2.34388   2.35694
 Alpha virt. eigenvalues --    2.36193   2.37353   2.38604   2.39206   2.39411
 Alpha virt. eigenvalues --    2.41523   2.43260   2.43519   2.44191   2.45148
 Alpha virt. eigenvalues --    2.46314   2.48226   2.49822   2.50479   2.50854
 Alpha virt. eigenvalues --    2.52320   2.52330   2.54267   2.55421   2.56351
 Alpha virt. eigenvalues --    2.57083   2.57435   2.60924   2.62341   2.62750
 Alpha virt. eigenvalues --    2.64085   2.64143   2.65366   2.67435   2.68238
 Alpha virt. eigenvalues --    2.69849   2.71451   2.71980   2.72775   2.74310
 Alpha virt. eigenvalues --    2.84183   2.84737   2.93717   2.94074   2.99477
 Alpha virt. eigenvalues --    3.00738   3.03492   3.06584   3.08161   3.08640
 Alpha virt. eigenvalues --    3.09295   3.11689   3.12914   3.14545   3.15213
 Alpha virt. eigenvalues --    3.17711   3.18839   3.19833   3.26202   3.26709
 Alpha virt. eigenvalues --    3.28237   3.33294   3.38146   3.38522   3.40029
 Alpha virt. eigenvalues --    3.63493   3.63801   3.69901   3.80794   3.83821
          Condensed to atoms (all electrons):
               1          2          3          4          5          6
     1  C    5.015262   0.445043  -0.122940   0.481212  -0.052853  -0.025799
     2  C    0.445043   5.570812   0.373196  -0.031190   0.318731  -0.106678
     3  C   -0.122940   0.373196   5.342103   0.014894  -0.113614   0.406889
     4  C    0.481212  -0.031190   0.014894   4.958820  -0.080873   0.000198
     5  C   -0.052853   0.318731  -0.113614  -0.080873   5.461424   0.012203
     6  C   -0.025799  -0.106678   0.406889   0.000198   0.012203   5.342133
     7  C    0.012564  -0.081817   0.384473  -0.000704  -0.071988  -0.069981
     8  C   -0.045002  -0.076504  -0.002543   0.401222  -0.029120  -0.000154
     9  C   -0.066937  -0.074153   0.014300  -0.046602   0.430296  -0.000372
    10  C    0.000117   0.016610  -0.069984   0.000048  -0.000554   0.384474
    11  C    0.013612  -0.076774  -0.059787  -0.002146   0.395793  -0.003010
    12  C   -0.012637  -0.018968  -0.106677  -0.001183   0.001405   0.373171
    13  C   -0.002945  -0.072491  -0.069416   0.000207  -0.029542   0.014938
    14  C   -0.000157   0.019736  -0.066596   0.000006   0.000418  -0.074590
    15  C   -0.000094  -0.004441  -0.074586  -0.000002  -0.000069  -0.066599
    16  C   -0.000970   0.001406   0.012204  -0.000130   0.000094  -0.113614
    17  C   -0.000013  -0.000067   0.014938  -0.000001   0.000022  -0.069416
    18  C   -0.000053  -0.000027  -0.003010   0.000001  -0.000003  -0.059788
    19  C   -0.017378  -0.012636  -0.025792   0.000499  -0.000971  -0.122940
    20  C    0.000128   0.000004  -0.000373  -0.000004   0.000001   0.014302
    21  C    0.000497  -0.001183   0.000198   0.001105  -0.000130   0.014896
    22  C    0.000095  -0.000048  -0.000154  -0.000014  -0.000001  -0.002543
    23  H    0.443902  -0.043038  -0.035133  -0.047044   0.016584  -0.000751
    24  H   -0.039343   0.013732  -0.000387   0.424754  -0.001552  -0.000009
    25  H    0.011562  -0.001013   0.000087  -0.052243   0.013254   0.000000
    26  H   -0.002094   0.014115  -0.000264   0.011839  -0.043761   0.000022
    27  H   -0.000106   0.013725  -0.000993  -0.000113  -0.055553   0.000075
    28  H    0.000040  -0.001305   0.012864   0.000002   0.014061  -0.000071
    29  H    0.000023  -0.000036   0.013112  -0.000000  -0.000190  -0.001030
    30  H    0.000000   0.000033  -0.001030   0.000000  -0.000002   0.013112
    31  H    0.000001   0.000026  -0.000071   0.000000  -0.000000   0.012865
    32  H    0.000002  -0.000003   0.000075   0.000000  -0.000000  -0.000993
    33  H   -0.008361  -0.015358  -0.000749  -0.003742  -0.001879  -0.035136
    34  H    0.000003  -0.000002   0.000022  -0.000000   0.000000  -0.000264
    35  H    0.000288   0.000168  -0.000009   0.000172   0.000008  -0.000387
    36  H    0.000001  -0.000000   0.000000   0.000000  -0.000000   0.000087
               7          8          9         10         11         12
     1  C    0.012564  -0.045002  -0.066937   0.000117   0.013612  -0.012637
     2  C   -0.081817  -0.076504  -0.074153   0.016610  -0.076774  -0.018968
     3  C    0.384473  -0.002543   0.014300  -0.069984  -0.059787  -0.106677
     4  C   -0.000704   0.401222  -0.046602   0.000048  -0.002146  -0.001183
     5  C   -0.071988  -0.029120   0.430296  -0.000554   0.395793   0.001405
     6  C   -0.069981  -0.000154  -0.000372   0.384474  -0.003010   0.373171
     7  C    5.488437   0.000173  -0.000512  -0.081876  -0.026385   0.016610
     8  C    0.000173   4.995566   0.456996  -0.000002   0.014748  -0.000048
     9  C   -0.000512   0.456996   4.991659   0.000015  -0.100336   0.000004
    10  C   -0.081876  -0.000002   0.000015   5.488439  -0.000025  -0.081814
    11  C   -0.026385   0.014748  -0.100336  -0.000025   4.990502  -0.000027
    12  C    0.016610  -0.000048   0.000004  -0.081814  -0.000027   5.570908
    13  C    0.386243  -0.001280   0.011625  -0.000305   0.467287  -0.000067
    14  C    0.386278  -0.000003   0.000077  -0.020490   0.013305  -0.004441
    15  C   -0.020495  -0.000001  -0.000001   0.386277  -0.001422   0.019737
    16  C   -0.000554  -0.000001   0.000001  -0.071990  -0.000003   0.318712
    17  C   -0.000305   0.000000   0.000000   0.386233  -0.000004  -0.072499
    18  C   -0.000026  -0.000000  -0.000000  -0.026385  -0.000000  -0.076770
    19  C    0.000118   0.000095   0.000128   0.012563  -0.000053   0.445059
    20  C    0.000015  -0.000000   0.000000  -0.000512  -0.000000  -0.074155
    21  C    0.000048  -0.000014  -0.000004  -0.000704   0.000001  -0.031193
    22  C   -0.000002   0.000001  -0.000000   0.000173  -0.000000  -0.076506
    23  H   -0.000351   0.013245  -0.002584  -0.000406   0.000065  -0.015361
    24  H    0.000012  -0.056304   0.011777  -0.000000   0.000055   0.000168
    25  H   -0.000001   0.425543  -0.044190   0.000000  -0.000390  -0.000000
    26  H   -0.000152  -0.053575   0.432927  -0.000000  -0.019659  -0.000002
    27  H    0.013893   0.001027  -0.018122  -0.000001   0.434030  -0.000003
    28  H   -0.053695   0.000006  -0.000403  -0.000201  -0.049579   0.000026
    29  H   -0.054161   0.000000  -0.000000   0.013893   0.001512   0.000033
    30  H    0.013893  -0.000000   0.000000  -0.054161   0.000008  -0.000036
    31  H   -0.000201   0.000000   0.000000  -0.053697   0.000000  -0.001305
    32  H   -0.000001   0.000000  -0.000000   0.013894   0.000000   0.013727
    33  H   -0.000406   0.000259   0.000019  -0.000351  -0.000092  -0.043028
    34  H   -0.000000   0.000000   0.000000  -0.000152  -0.000000   0.014114
    35  H   -0.000000  -0.000013  -0.000003   0.000012   0.000000   0.013731
    36  H    0.000000   0.000000  -0.000000  -0.000001   0.000000  -0.001013
              13         14         15         16         17         18
     1  C   -0.002945  -0.000157  -0.000094  -0.000970  -0.000013  -0.000053
     2  C   -0.072491   0.019736  -0.004441   0.001406  -0.000067  -0.000027
     3  C   -0.069416  -0.066596  -0.074586   0.012204   0.014938  -0.003010
     4  C    0.000207   0.000006  -0.000002  -0.000130  -0.000001   0.000001
     5  C   -0.029542   0.000418  -0.000069   0.000094   0.000022  -0.000003
     6  C    0.014938  -0.074590  -0.066599  -0.113614  -0.069416  -0.059788
     7  C    0.386243   0.386278  -0.020495  -0.000554  -0.000305  -0.000026
     8  C   -0.001280  -0.000003  -0.000001  -0.000001   0.000000  -0.000000
     9  C    0.011625   0.000077  -0.000001   0.000001   0.000000  -0.000000
    10  C   -0.000305  -0.020490   0.386277  -0.071990   0.386233  -0.026385
    11  C    0.467287   0.013305  -0.001422  -0.000003  -0.000004  -0.000000
    12  C   -0.000067  -0.004441   0.019737   0.318712  -0.072499  -0.076770
    13  C    4.993290  -0.105314   0.013640   0.000022   0.000079  -0.000004
    14  C   -0.105314   5.007366   0.445894  -0.000069   0.013641  -0.001422
    15  C    0.013640   0.445894   5.007352   0.000417  -0.105316   0.013304
    16  C    0.000022  -0.000069   0.000417   5.461399  -0.029532   0.395786
    17  C    0.000079   0.013641  -0.105316  -0.029532   4.993290   0.467306
    18  C   -0.000004  -0.001422   0.013304   0.395786   0.467306   4.990492
    19  C   -0.000013  -0.000094  -0.000157  -0.052847  -0.002945   0.013612
    20  C    0.000000  -0.000001   0.000077   0.430286   0.011625  -0.100342
    21  C   -0.000001  -0.000002   0.000006  -0.080875   0.000207  -0.002146
    22  C    0.000000  -0.000001  -0.000003  -0.029126  -0.001280   0.014747
    23  H   -0.000165   0.000060  -0.000085  -0.001880   0.000063  -0.000092
    24  H    0.000001  -0.000000   0.000000   0.000008   0.000000   0.000000
    25  H    0.000006  -0.000000   0.000000  -0.000000  -0.000000   0.000000
    26  H    0.001307   0.000002   0.000000   0.000000   0.000000  -0.000000
    27  H   -0.046753  -0.000400   0.000008  -0.000000   0.000000   0.000000
    28  H    0.436027  -0.019487   0.001567  -0.000000   0.000001   0.000000
    29  H   -0.019146   0.436086  -0.049135  -0.000002  -0.000412   0.000008
    30  H   -0.000412  -0.049135   0.436087  -0.000190  -0.019147   0.001511
    31  H    0.000001   0.001567  -0.019486   0.014061   0.436026  -0.049577
    32  H    0.000000   0.000008  -0.000400  -0.055553  -0.046752   0.434029
    33  H    0.000063  -0.000085   0.000060   0.016585  -0.000165   0.000065
    34  H    0.000000   0.000000   0.000002  -0.043763   0.001306  -0.019658
    35  H    0.000000   0.000000  -0.000000  -0.001552   0.000001   0.000055
    36  H   -0.000000   0.000000  -0.000000   0.013255   0.000006  -0.000390
              19         20         21         22         23         24
     1  C   -0.017378   0.000128   0.000497   0.000095   0.443902  -0.039343
     2  C   -0.012636   0.000004  -0.001183  -0.000048  -0.043038   0.013732
     3  C   -0.025792  -0.000373   0.000198  -0.000154  -0.035133  -0.000387
     4  C    0.000499  -0.000004   0.001105  -0.000014  -0.047044   0.424754
     5  C   -0.000971   0.000001  -0.000130  -0.000001   0.016584  -0.001552
     6  C   -0.122940   0.014302   0.014896  -0.002543  -0.000751  -0.000009
     7  C    0.000118   0.000015   0.000048  -0.000002  -0.000351   0.000012
     8  C    0.000095  -0.000000  -0.000014   0.000001   0.013245  -0.056304
     9  C    0.000128   0.000000  -0.000004  -0.000000  -0.002584   0.011777
    10  C    0.012563  -0.000512  -0.000704   0.000173  -0.000406  -0.000000
    11  C   -0.000053  -0.000000   0.000001  -0.000000   0.000065   0.000055
    12  C    0.445059  -0.074155  -0.031193  -0.076506  -0.015361   0.000168
    13  C   -0.000013   0.000000  -0.000001   0.000000  -0.000165   0.000001
    14  C   -0.000094  -0.000001  -0.000002  -0.000001   0.000060  -0.000000
    15  C   -0.000157   0.000077   0.000006  -0.000003  -0.000085   0.000000
    16  C   -0.052847   0.430286  -0.080875  -0.029126  -0.001880   0.000008
    17  C   -0.002945   0.011625   0.000207  -0.001280   0.000063   0.000000
    18  C    0.013612  -0.100342  -0.002146   0.014747  -0.000092   0.000000
    19  C    5.015235  -0.066940   0.481184  -0.044999  -0.008365   0.000288
    20  C   -0.066940   4.991665  -0.046598   0.457010   0.000019  -0.000003
    21  C    0.481184  -0.046598   4.958818   0.401234  -0.003745   0.000172
    22  C   -0.044999   0.457010   0.401234   4.995570   0.000259  -0.000013
    23  H   -0.008365   0.000019  -0.003745   0.000259   0.612483  -0.015297
    24  H    0.000288  -0.000003   0.000172  -0.000013  -0.015297   0.602328
    25  H    0.000001  -0.000000   0.000000   0.000000  -0.000126  -0.013371
    26  H    0.000003   0.000000  -0.000000   0.000000   0.000043  -0.000119
    27  H    0.000002  -0.000000   0.000000   0.000000   0.000018  -0.000003
    28  H    0.000001   0.000000   0.000000   0.000000  -0.000004   0.000000
    29  H    0.000000   0.000000   0.000000  -0.000000   0.000003   0.000000
    30  H    0.000023  -0.000000  -0.000000   0.000000  -0.000002  -0.000000
    31  H    0.000040  -0.000403   0.000002   0.000006   0.000005  -0.000000
    32  H   -0.000106  -0.018124  -0.000113   0.001027   0.000000   0.000000
    33  H    0.443902  -0.002584  -0.047048   0.013244   0.000255  -0.000004
    34  H   -0.002094   0.432927   0.011839  -0.053570   0.000003  -0.000000
    35  H   -0.039348   0.011777   0.424758  -0.056303  -0.000004   0.000005
    36  H    0.011563  -0.044187  -0.052244   0.425539   0.000022  -0.000000
              25         26         27         28         29         30
     1  C    0.011562  -0.002094  -0.000106   0.000040   0.000023   0.000000
     2  C   -0.001013   0.014115   0.013725  -0.001305  -0.000036   0.000033
     3  C    0.000087  -0.000264  -0.000993   0.012864   0.013112  -0.001030
     4  C   -0.052243   0.011839  -0.000113   0.000002  -0.000000   0.000000
     5  C    0.013254  -0.043761  -0.055553   0.014061  -0.000190  -0.000002
     6  C    0.000000   0.000022   0.000075  -0.000071  -0.001030   0.013112
     7  C   -0.000001  -0.000152   0.013893  -0.053695  -0.054161   0.013893
     8  C    0.425543  -0.053575   0.001027   0.000006   0.000000  -0.000000
     9  C   -0.044190   0.432927  -0.018122  -0.000403  -0.000000   0.000000
    10  C    0.000000  -0.000000  -0.000001  -0.000201   0.013893  -0.054161
    11  C   -0.000390  -0.019659   0.434030  -0.049579   0.001512   0.000008
    12  C   -0.000000  -0.000002  -0.000003   0.000026   0.000033  -0.000036
    13  C    0.000006   0.001307  -0.046753   0.436027  -0.019146  -0.000412
    14  C   -0.000000   0.000002  -0.000400  -0.019487   0.436086  -0.049135
    15  C    0.000000   0.000000   0.000008   0.001567  -0.049135   0.436087
    16  C   -0.000000   0.000000  -0.000000  -0.000000  -0.000002  -0.000190
    17  C   -0.000000   0.000000   0.000000   0.000001  -0.000412  -0.019147
    18  C    0.000000  -0.000000   0.000000   0.000000   0.000008   0.001511
    19  C    0.000001   0.000003   0.000002   0.000001   0.000000   0.000023
    20  C   -0.000000   0.000000  -0.000000   0.000000   0.000000  -0.000000
    21  C    0.000000  -0.000000   0.000000   0.000000   0.000000  -0.000000
    22  C    0.000000   0.000000   0.000000   0.000000  -0.000000   0.000000
    23  H   -0.000126   0.000043   0.000018  -0.000004   0.000003  -0.000002
    24  H   -0.013371  -0.000119  -0.000003   0.000000   0.000000  -0.000000
    25  H    0.600252  -0.013439   0.000008  -0.000001  -0.000000   0.000000
    26  H   -0.013439   0.613691  -0.000262   0.000015  -0.000000  -0.000000
    27  H    0.000008  -0.000262   0.615022  -0.013714   0.000014  -0.000000
    28  H   -0.000001   0.000015  -0.013714   0.614975  -0.001624   0.000017
    29  H   -0.000000  -0.000000   0.000014  -0.001624   0.615294  -0.013129
    30  H    0.000000  -0.000000  -0.000000   0.000017  -0.013129   0.615293
    31  H    0.000000  -0.000000  -0.000000  -0.000001   0.000017  -0.001624
    32  H    0.000000   0.000000   0.000000  -0.000000  -0.000000   0.000014
    33  H    0.000022   0.000003   0.000000   0.000005  -0.000002   0.000003
    34  H   -0.000000   0.000000   0.000000  -0.000000  -0.000000  -0.000000
    35  H   -0.000000  -0.000000   0.000000  -0.000000  -0.000000   0.000000
    36  H    0.000000  -0.000000   0.000000   0.000000   0.000000  -0.000000
              31         32         33         34         35         36
     1  C    0.000001   0.000002  -0.008361   0.000003   0.000288   0.000001
     2  C    0.000026  -0.000003  -0.015358  -0.000002   0.000168  -0.000000
     3  C   -0.000071   0.000075  -0.000749   0.000022  -0.000009   0.000000
     4  C    0.000000   0.000000  -0.003742  -0.000000   0.000172   0.000000
     5  C   -0.000000  -0.000000  -0.001879   0.000000   0.000008  -0.000000
     6  C    0.012865  -0.000993  -0.035136  -0.000264  -0.000387   0.000087
     7  C   -0.000201  -0.000001  -0.000406  -0.000000  -0.000000   0.000000
     8  C    0.000000   0.000000   0.000259   0.000000  -0.000013   0.000000
     9  C    0.000000  -0.000000   0.000019   0.000000  -0.000003  -0.000000
    10  C   -0.053697   0.013894  -0.000351  -0.000152   0.000012  -0.000001
    11  C    0.000000   0.000000  -0.000092  -0.000000   0.000000   0.000000
    12  C   -0.001305   0.013727  -0.043028   0.014114   0.013731  -0.001013
    13  C    0.000001   0.000000   0.000063   0.000000   0.000000  -0.000000
    14  C    0.001567   0.000008  -0.000085   0.000000   0.000000   0.000000
    15  C   -0.019486  -0.000400   0.000060   0.000002  -0.000000  -0.000000
    16  C    0.014061  -0.055553   0.016585  -0.043763  -0.001552   0.013255
    17  C    0.436026  -0.046752  -0.000165   0.001306   0.000001   0.000006
    18  C   -0.049577   0.434029   0.000065  -0.019658   0.000055  -0.000390
    19  C    0.000040  -0.000106   0.443902  -0.002094  -0.039348   0.011563
    20  C   -0.000403  -0.018124  -0.002584   0.432927   0.011777  -0.044187
    21  C    0.000002  -0.000113  -0.047048   0.011839   0.424758  -0.052244
    22  C    0.000006   0.001027   0.013244  -0.053570  -0.056303   0.425539
    23  H    0.000005   0.000000   0.000255   0.000003  -0.000004   0.000022
    24  H   -0.000000   0.000000  -0.000004  -0.000000   0.000005  -0.000000
    25  H    0.000000   0.000000   0.000022  -0.000000  -0.000000   0.000000
    26  H   -0.000000   0.000000   0.000003   0.000000  -0.000000  -0.000000
    27  H   -0.000000   0.000000   0.000000   0.000000   0.000000   0.000000
    28  H   -0.000001  -0.000000   0.000005  -0.000000  -0.000000   0.000000
    29  H    0.000017  -0.000000  -0.000002  -0.000000  -0.000000   0.000000
    30  H   -0.001624   0.000014   0.000003  -0.000000   0.000000  -0.000000
    31  H    0.614977  -0.013715  -0.000004   0.000015   0.000000  -0.000001
    32  H   -0.013715   0.615025   0.000018  -0.000261  -0.000003   0.000008
    33  H   -0.000004   0.000018   0.612475   0.000043  -0.015295  -0.000126
    34  H    0.000015  -0.000261   0.000043   0.613690  -0.000119  -0.013440
    35  H    0.000000  -0.000003  -0.015295  -0.000119   0.602326  -0.013372
    36  H   -0.000001   0.000008  -0.000126  -0.013440  -0.013372   0.600251
 Mulliken charges:
               1
     1  C   -0.026669
     2  C   -0.169605
     3  C    0.164753
     4  C   -0.028988
     5  C   -0.181636
     6  C    0.164761
     7  C   -0.239143
     8  C   -0.044318
     9  C    0.004394
    10  C   -0.239138
    11  C    0.008776
    12  C   -0.169672
    13  C    0.023118
    14  C    0.017843
    15  C    0.017866
    16  C   -0.181583
    17  C    0.023109
    18  C    0.008775
    19  C   -0.026636
    20  C    0.004390
    21  C   -0.028963
    22  C   -0.044345
    23  H    0.087404
    24  H    0.073108
    25  H    0.074037
    26  H    0.059361
    27  H    0.058198
    28  H    0.060477
    29  H    0.058874
    30  H    0.058875
    31  H    0.060476
    32  H    0.058197
    33  H    0.087393
    34  H    0.059359
    35  H    0.073109
    36  H    0.074041
 Sum of Mulliken charges =  -0.00000
 Mulliken charges with hydrogens summed into heavy atoms:
               1
     1  C    0.060735
     2  C   -0.169605
     3  C    0.164753
     4  C    0.044120
     5  C   -0.181636
     6  C    0.164761
     7  C   -0.239143
     8  C    0.029719
     9  C    0.063754
    10  C   -0.239138
    11  C    0.066975
    12  C   -0.169672
    13  C    0.083595
    14  C    0.076718
    15  C    0.076742
    16  C   -0.181583
    17  C    0.083585
    18  C    0.066972
    19  C    0.060757
    20  C    0.063749
    21  C    0.044146
    22  C    0.029696
 Electronic spatial extent (au):  <R**2>=           5745.9018
 Charge=             -0.0000 electrons
 Dipole moment (field-independent basis, Debye):
    X=             -0.0002    Y=              0.0021    Z=              0.0002  Tot=              0.0021
 Quadrupole moment (field-independent basis, Debye-Ang):
   XX=           -109.8854   YY=           -110.3152   ZZ=           -133.7873
   XY=              0.0005   XZ=              5.5611   YZ=              0.0001
 Traceless Quadrupole moment (field-independent basis, Debye-Ang):
   XX=              8.1106   YY=              7.6808   ZZ=            -15.7913
   XY=              0.0005   XZ=              5.5611   YZ=              0.0001
 Octapole moment (field-independent basis, Debye-Ang**2):
  XXX=              0.0003  YYY=             14.5414  ZZZ=              0.0026  XYY=             -0.0019
  XXY=             -8.5318  XXZ=             -0.0020  XZZ=             -0.0011  YZZ=             -9.3495
  YYZ=              0.0006  XYZ=             19.4704
 Hexadecapole moment (field-independent basis, Debye-Ang**3):
 XXXX=          -4259.4220 YYYY=          -2670.5407 ZZZZ=           -482.7805 XXXY=              0.0061
 XXXZ=            133.9942 YYYX=              0.0009 YYYZ=              0.0099 ZZZX=              7.0973
 ZZZY=             -0.0062 XXYY=          -1139.5182 XXZZ=           -926.2662 YYZZ=           -572.4973
 XXYZ=              0.0033 YYXZ=             -8.6901 ZZXY=              0.0008
 N-N= 1.607871519418D+03 E-N=-5.179537360328D+03  KE= 8.431272176370D+02
 1\1\GINC-LOCALHOST\SP\RrevTPSSrevTPSS\Gen\C22H14\KIMARIYB\16-Jul-2023\
 0\\# nmr revTPSSrevTPSS/gen scrf(solvent=chloroform)\\Title Card Requi
 red\\0,1\C,0,-1.139349,-1.497088,0.918775\C,0,-1.572082,-0.362797,0.19
 241\C,0,-0.720364,0.792666,-0.053169\C,0,-1.973226,-2.562358,1.150155\
 C,0,-2.936876,-0.312296,-0.184091\C,0,0.720366,0.79271,0.053006\C,0,-1
 .362311,2.016235,-0.322724\C,0,-3.293659,-2.551157,0.670125\C,0,-3.766
 198,-1.43565,0.028535\C,0,1.362207,2.016295,0.322696\C,0,-3.488309,0.9
 08076,-0.683586\C,0,1.572137,-0.362709,-0.192533\C,0,-2.747319,2.03834
 6,-0.681203\C,0,-0.647182,3.238171,-0.204592\C,0,0.647038,3.238199,0.2
 04543\C,0,2.936876,-0.312232,0.184208\C,0,2.747191,2.038421,0.681326\C
 ,0,3.488203,0.908174,0.683774\C,0,1.139509,-1.496931,-0.919053\C,0,3.7
 66192,-1.435585,-0.028281\C,0,1.973403,-2.562225,-1.1503\C,0,3.293717,
 -2.551057,-0.670014\H,0,-0.134926,-1.521768,1.319421\H,0,-1.610463,-3.
 412317,1.718391\H,0,-3.943245,-3.403186,0.840397\H,0,-4.801228,-1.3866
 8,-0.296834\H,0,-4.531157,0.927741,-0.98499\H,0,-3.189148,2.989141,-0.
 963781\H,0,-1.172267,4.171035,-0.385375\H,0,1.172123,4.171084,0.385217
 \H,0,3.189004,2.989225,0.963904\H,0,4.531048,0.927902,0.985195\H,0,0.1
 35142,-1.521554,-1.319824\H,0,4.801227,-1.386628,0.297072\H,0,1.61077,
 -3.412146,-1.718675\H,0,3.943329,-3.403096,-0.840167\\Version=ES64L-G1
 6RevA.03\State=1-A\HF=-846.5727889\RMSD=8.132e-09\Dipole=0.0000761,0.0
 008232,-0.0000806\Quadrupole=6.0300028,5.7104636,-11.7404665,-0.000381
 1,4.1345229,-0.0000654\PG=C01 [X(C22H14)]\\@


 LORD, MAN... WERE YE BUT WHYLES WHERE I AM, 
 THE GENTILES YE WAD NE'ER ENVY 'EM.        
 IT'S TRUE, THEY NEEDNA STARVE OR SWEAT,     
 THRO' WINTER'S CAULD OR SIMMER'S HEAT...  
 THEY'VE NAE SAIR WARK TO CRAZE THEIR BANES, 
 AND FILL AULD AGE WITH GRIPS AN' GRANES...  
                                             
 BUT HUMAN BODIES ARE SIC FOOLS              
 FOR A' THEIR COLLEGES AND SCHOOLS,           
 THAT WHEN NAE REAL ILLS PERPLEX THEM,       
 THEY MAK ENOW THEMSELVES TO VEX THEM,       
 AN' AYE THE LESS THEY HAE TO STURT THEM,    
 IN LIKE PROPORTION LESS WILL HURT THEM....  
                                             
                (ROBERT BURNS 'THE TWA DOGS')
 Job cpu time:       0 days  0 hours 16 minutes 19.9 seconds.
 Elapsed time:       0 days  0 hours  1 minutes 45.0 seconds.
 File lengths (MBytes):  RWF=    203 Int=      0 D2E=      0 Chk=     13 Scr=      1
 Normal termination of Gaussian 16 at Sun Jul 16 22:50:30 2023.
