 Entering Gaussian System, Link 0=g16
 Initial command:
 /home/kimariyb/g16/l1.exe "/home/kimariyb/g16/scratch/Gau-533281.inp" -scrdir="/home/kimariyb/g16/scratch/"
 Default is to use a total of  10 processors:
                               10 via shared-memory
                                1 via Linda
 Entering Link 1 = /home/kimariyb/g16/l1.exe PID=    533282.
  
 Copyright (c) 1988,1990,1992,1993,1995,1998,2003,2009,2016,
            Gaussian, Inc.  All Rights Reserved.
  
 This is part of the Gaussian(R) 16 program.  It is based on
 the Gaussian(R) 09 system (copyright 2009, Gaussian, Inc.),
 the Gaussian(R) 03 system (copyright 2003, Gaussian, Inc.),
 the Gaussian(R) 98 system (copyright 1998, Gaussian, Inc.),
 the Gaussian(R) 94 system (copyright 1995, Gaussian, Inc.),
 the Gaussian 92(TM) system (copyright 1992, Gaussian, Inc.),
 the Gaussian 90(TM) system (copyright 1990, Gaussian, Inc.),
 the Gaussian 88(TM) system (copyright 1988, Gaussian, Inc.),
 the Gaussian 86(TM) system (copyright 1986, Carnegie Mellon
 University), and the Gaussian 82(TM) system (copyright 1983,
 Carnegie Mellon University). Gaussian is a federally registered
 trademark of Gaussian, Inc.
  
 This software contains proprietary and confidential information,
 including trade secrets, belonging to Gaussian, Inc.
  
 This software is provided under written license and may be
 used, copied, transmitted, or stored only in accord with that
 written license.
  
 The following legend is applicable only to US Government
 contracts under FAR:
  
                    RESTRICTED RIGHTS LEGEND
  
 Use, reproduction and disclosure by the US Government is
 subject to restrictions as set forth in subparagraphs (a)
 and (c) of the Commercial Computer Software - Restricted
 Rights clause in FAR 52.227-19.
  
 Gaussian, Inc.
 340 Quinnipiac St., Bldg. 40, Wallingford CT 06492
  
  
 ---------------------------------------------------------------
 Warning -- This program may not be used in any manner that
 competes with the business of Gaussian, Inc. or will provide
 assistance to any competitor of Gaussian, Inc.  The licensee
 of this program is prohibited from giving any competitor of
 Gaussian, Inc. access to this program.  By using this program,
 the user acknowledges that Gaussian, Inc. is engaged in the
 business of creating and licensing software in the field of
 computational chemistry and represents and warrants to the
 licensee that it is not a competitor of Gaussian, Inc. and that
 it will not use this program in any manner prohibited above.
 ---------------------------------------------------------------
  

 Cite this work as:
 Gaussian 16, Revision A.03,
 M. J. Frisch, G. W. Trucks, H. B. Schlegel, G. E. Scuseria, 
 M. A. Robb, J. R. Cheeseman, G. Scalmani, V. Barone, 
 G. A. Petersson, H. Nakatsuji, X. Li, M. Caricato, A. V. Marenich, 
 J. Bloino, B. G. Janesko, R. Gomperts, B. Mennucci, H. P. Hratchian, 
 J. V. Ortiz, A. F. Izmaylov, J. L. Sonnenberg, D. Williams-Young, 
 F. Ding, F. Lipparini, F. Egidi, J. Goings, B. Peng, A. Petrone, 
 T. Henderson, D. Ranasinghe, V. G. Zakrzewski, J. Gao, N. Rega, 
 G. Zheng, W. Liang, M. Hada, M. Ehara, K. Toyota, R. Fukuda, 
 J. Hasegawa, M. Ishida, T. Nakajima, Y. Honda, O. Kitao, H. Nakai, 
 T. Vreven, K. Throssell, J. A. Montgomery, Jr., J. E. Peralta, 
 F. Ogliaro, M. J. Bearpark, J. J. Heyd, E. N. Brothers, K. N. Kudin, 
 V. N. Staroverov, T. A. Keith, R. Kobayashi, J. Normand, 
 K. Raghavachari, A. P. Rendell, J. C. Burant, S. S. Iyengar, 
 J. Tomasi, M. Cossi, J. M. Millam, M. Klene, C. Adamo, R. Cammi, 
 J. W. Ochterski, R. L. Martin, K. Morokuma, O. Farkas, 
 J. B. Foresman, and D. J. Fox, Gaussian, Inc., Wallingford CT, 2016.
 
 ******************************************
 Gaussian 16:  ES64L-G16RevA.03 25-Dec-2016
                16-Jul-2023 
 ******************************************
 ---------------------------------------------------------
 # TD(nstates=50) scrf(solvent=chloroform) pbe1pbe/6-311g*
 ---------------------------------------------------------
 1/38=1,172=1/1;
 2/12=2,17=6,18=5,40=1/2;
 3/5=4,6=6,7=1,11=9,25=1,30=1,70=2201,72=7,74=-13/1,2,3,8;
 4//1;
 5/5=2,38=5,53=7/2;
 8/6=1,10=2,108=50/1;
 9/41=50,42=1,70=2/14;
 6/7=2,8=2,9=2,10=2/1;
 99/5=1,9=1/99;
 -------------------
 Title Card Required
 -------------------
 Symbolic Z-matrix:
 Charge =  0 Multiplicity = 1
 C                    -1.13935  -1.49709   0.91878 
 C                    -1.57208  -0.3628    0.19241 
 C                    -0.72036   0.79267  -0.05317 
 C                    -1.97323  -2.56236   1.15016 
 C                    -2.93688  -0.3123   -0.18409 
 C                     0.72037   0.79271   0.05301 
 C                    -1.36231   2.01623  -0.32272 
 C                    -3.29366  -2.55116   0.67013 
 C                    -3.7662   -1.43565   0.02854 
 C                     1.36221   2.01629   0.3227 
 C                    -3.48831   0.90808  -0.68359 
 C                     1.57214  -0.36271  -0.19253 
 C                    -2.74732   2.03835  -0.6812 
 C                    -0.64718   3.23817  -0.20459 
 C                     0.64704   3.2382    0.20454 
 C                     2.93688  -0.31223   0.18421 
 C                     2.74719   2.03842   0.68133 
 C                     3.4882    0.90817   0.68377 
 C                     1.13951  -1.49693  -0.91905 
 C                     3.76619  -1.43559  -0.02828 
 C                     1.9734   -2.56223  -1.1503 
 C                     3.29372  -2.55106  -0.67001 
 H                    -0.13493  -1.52177   1.31942 
 H                    -1.61046  -3.41232   1.71839 
 H                    -3.94325  -3.40319   0.8404 
 H                    -4.80123  -1.38668  -0.29683 
 H                    -4.53116   0.92774  -0.98499 
 H                    -3.18915   2.98914  -0.96378 
 H                    -1.17227   4.17103  -0.38538 
 H                     1.17212   4.17108   0.38522 
 H                     3.189     2.98923   0.9639 
 H                     4.53105   0.9279    0.9852 
 H                     0.13514  -1.52155  -1.31982 
 H                     4.80123  -1.38663   0.29707 
 H                     1.61077  -3.41215  -1.71868 
 H                     3.94333  -3.4031   -0.84017 
 
                          Input orientation:                          
 ---------------------------------------------------------------------
 Center     Atomic      Atomic             Coordinates (Angstroms)
 Number     Number       Type             X           Y           Z
 ---------------------------------------------------------------------
      1          6           0       -1.139349   -1.497088    0.918775
      2          6           0       -1.572082   -0.362797    0.192410
      3          6           0       -0.720364    0.792666   -0.053169
      4          6           0       -1.973226   -2.562358    1.150155
      5          6           0       -2.936876   -0.312296   -0.184091
      6          6           0        0.720366    0.792710    0.053006
      7          6           0       -1.362311    2.016235   -0.322724
      8          6           0       -3.293659   -2.551157    0.670125
      9          6           0       -3.766198   -1.435650    0.028535
     10          6           0        1.362207    2.016295    0.322696
     11          6           0       -3.488309    0.908076   -0.683586
     12          6           0        1.572137   -0.362709   -0.192533
     13          6           0       -2.747319    2.038346   -0.681203
     14          6           0       -0.647182    3.238171   -0.204592
     15          6           0        0.647038    3.238199    0.204543
     16          6           0        2.936876   -0.312232    0.184208
     17          6           0        2.747191    2.038421    0.681326
     18          6           0        3.488203    0.908174    0.683774
     19          6           0        1.139509   -1.496931   -0.919053
     20          6           0        3.766192   -1.435585   -0.028281
     21          6           0        1.973403   -2.562225   -1.150300
     22          6           0        3.293717   -2.551057   -0.670014
     23          1           0       -0.134926   -1.521768    1.319421
     24          1           0       -1.610463   -3.412317    1.718391
     25          1           0       -3.943245   -3.403186    0.840397
     26          1           0       -4.801228   -1.386680   -0.296834
     27          1           0       -4.531157    0.927741   -0.984990
     28          1           0       -3.189148    2.989141   -0.963781
     29          1           0       -1.172267    4.171035   -0.385375
     30          1           0        1.172123    4.171084    0.385217
     31          1           0        3.189004    2.989225    0.963904
     32          1           0        4.531048    0.927902    0.985195
     33          1           0        0.135142   -1.521554   -1.319824
     34          1           0        4.801227   -1.386628    0.297072
     35          1           0        1.610770   -3.412146   -1.718675
     36          1           0        3.943329   -3.403096   -0.840167
 ---------------------------------------------------------------------
                    Distance matrix (angstroms):
                    1          2          3          4          5
     1  C    0.000000
     2  C    1.414737   0.000000
     3  C    2.522538   1.456306   0.000000
     4  C    1.372475   2.432336   3.778073   0.000000
     5  C    2.418915   1.416674   2.480122   2.787761   0.000000
     6  C    3.074292   2.570982   1.444637   4.440231   3.827881
     7  C    3.732890   2.443186   1.407792   4.848309   2.814344
     8  C    2.411211   2.825059   4.280906   1.405026   2.422700
     9  C    2.774281   2.447859   3.774808   2.396299   1.412412
    10  C    4.353958   3.779829   2.444513   5.724846   4.915413
    11  C    3.724243   2.460572   2.841173   4.207374   1.429294
    12  C    3.142289   3.167695   2.570968   4.383020   4.509303
    13  C    4.200570   2.812449   2.460628   5.011943   2.410098
    14  C    4.891509   3.738987   2.451281   6.102448   4.224800
    15  C    5.111189   4.229872   2.813687   6.434783   5.059792
    16  C    4.308025   4.509249   3.827865   5.486823   5.885287
    17  C    5.259411   4.965985   3.757037   6.608275   6.211557
    18  C    5.220608   5.240543   4.274162   6.487627   6.597301
    19  C    2.927594   3.142346   3.074270   3.886628   4.308183
    20  C    4.996502   5.449472   5.009482   5.966511   6.798322
    21  C    3.886491   4.383015   4.440199   4.568148   5.486946
    22  C    4.825679   5.404466   5.260592   5.572596   6.638408
    23  H    1.081662   2.163050   2.753788   2.119157   3.402102
    24  H    2.128247   3.410229   4.648934   1.084859   3.871555
    25  H    3.391340   3.909766   5.365687   2.164236   3.408219
    26  H    3.859955   3.422730   4.632750   3.387269   2.154720
    27  H    4.583501   3.436260   3.925389   4.825209   2.172755
    28  H    5.279389   3.897072   3.427625   6.063525   3.401624
    29  H    5.816314   4.587954   3.424610   6.952551   4.822304
    30  H    6.144572   5.303198   3.897101   7.471117   6.108083
    31  H    6.234074   5.873601   4.598094   7.583098   7.052967
    32  H    6.167527   6.288291   5.354794   7.383408   7.659975
    33  H    2.576092   2.558160   2.773431   3.410174   3.491345
    34  H    5.974040   6.455870   5.946424   6.928442   7.827129
    35  H    4.264592   4.804302   5.088078   4.668763   5.713589
    36  H    5.706169   6.381958   6.322485   6.298718   7.571044
                    6          7          8          9         10
     6  C    0.000000
     7  C    2.444531   0.000000
     8  C    5.260673   5.057363   0.000000
     9  C    5.009535   4.221086   1.370871   0.000000
    10  C    1.407783   2.799922   6.531417   6.188941   0.000000
    11  C    4.274204   2.424480   3.719774   2.465236   5.076245
    12  C    1.456295   3.779856   5.404577   5.449577   2.443193
    13  C    3.757062   1.430819   4.815404   3.689240   4.230426
    14  C    2.813685   1.420737   6.425363   5.623808   2.410116
    15  C    2.451277   2.410122   7.018725   6.430591   1.420731
    16  C    2.480126   4.915460   6.638408   6.798346   2.814391
    17  C    2.460610   4.230439   7.586582   7.410772   1.430834
    18  C    2.841148   5.076251   7.613200   7.651744   2.424493
    19  C    2.522506   4.353969   4.825957   4.996763   3.732866
    20  C    3.774780   6.188966   7.181488   7.532604   4.221114
    21  C    3.778047   5.724873   5.572792   5.966728   4.848311
    22  C    4.280849   6.531414   6.722313   7.181539   5.057362
    23  H    2.773471   4.089081   3.385088   3.854859   3.968974
    24  H    5.088077   5.804904   2.161853   3.377872   6.344648
    25  H    6.322562   6.114262   1.084854   2.135805   7.601750
    26  H    5.946438   4.838042   2.136301   1.086071   7.067672
    27  H    5.354826   3.415406   4.046423   2.682911   6.134063
    28  H    4.598094   2.166756   5.777151   4.571264   4.828694
    29  H    3.897091   2.164071   7.127570   6.191504   3.401151
    30  H    3.424596   3.401163   8.075451   7.479953   2.164060
    31  H    3.427621   4.828725   8.532705   8.296341   2.166778
    32  H    3.925373   6.134069   8.569082   8.680200   3.415415
    33  H    2.753719   3.968945   4.095932   4.128669   4.089002
    34  H    4.632765   7.067731   8.186726   8.571773   4.838119
    35  H    4.648923   6.344699   5.522779   5.989246   5.804907
    36  H    5.365635   7.601757   7.441826   8.003892   6.114265
                   11         12         13         14         15
    11  C    0.000000
    12  C    5.240624   0.000000
    13  C    1.351511   4.966041   0.000000
    14  C    3.705507   4.229877   2.465221   0.000000
    15  C    4.829010   3.738986   3.707540   1.357349   0.000000
    16  C    6.597365   1.416684   6.211620   5.059842   4.224847
    17  C    6.482447   2.812438   5.660930   3.707562   2.465245
    18  C    7.109247   2.460562   6.482452   4.829026   3.705523
    19  C    5.220747   1.414729   5.259486   5.111155   4.891467
    20  C    7.651794   2.447840   7.410825   6.430626   5.623841
    21  C    6.487766   2.432325   6.608368   6.434782   6.102439
    22  C    7.613256   2.825012   7.586624   7.018722   6.425360
    23  H    4.600147   2.558024   4.847835   5.024146   4.950930
    24  H    5.287872   4.804236   6.063021   6.989618   7.184526
    25  H    4.595266   6.382075   5.775446   7.487567   8.098333
    26  H    2.671935   6.455941   4.012117   6.217222   7.164111
    27  H    1.085709   6.288358   2.123160   4.586106   5.793696
    28  H    2.121046   5.873632   1.085852   2.664578   4.017877
    29  H    4.012466   5.303185   2.667708   1.085648   2.127923
    30  H    5.788712   4.587928   4.587793   2.127927   1.085648
    31  H    7.185535   3.897059   6.233015   4.017920   2.664622
    32  H    8.191173   3.436259   7.548814   5.793704   4.586112
    33  H    4.408775   2.163021   4.624857   4.950834   5.024040
    34  H    8.657007   3.422739   8.346737   7.164188   6.217304
    35  H    6.762864   3.410230   7.055292   7.184533   6.989609
    36  H    8.593018   3.909723   8.625505   8.098344   7.487573
                   16         17         18         19         20
    16  C    0.000000
    17  C    2.410120   0.000000
    18  C    1.429307   1.351504   0.000000
    19  C    2.418930   4.200544   3.724238   0.000000
    20  C    1.412388   3.689258   2.465260   2.774293   0.000000
    21  C    2.787770   5.011940   4.207388   1.372482   2.396317
    22  C    2.422678   4.815404   3.719791   2.411185   1.370887
    23  H    3.491082   4.624793   4.408597   2.575959   4.128250
    24  H    5.713365   7.055154   6.762653   4.264641   5.988886
    25  H    7.571040   8.625446   8.592949   5.706475   8.003841
    26  H    7.827138   8.346661   8.656940   5.974250   8.571767
    27  H    7.660031   7.548812   8.191172   6.167644   8.680242
    28  H    7.053022   6.233006   7.185533   6.234109   8.296392
    29  H    6.108123   4.587815   5.788724   6.144506   7.479979
    30  H    4.822331   2.667728   4.012474   5.816234   6.191519
    31  H    3.401634   1.085853   2.121029   5.279352   4.571271
    32  H    2.172762   2.123143   1.085712   4.583504   2.682948
    33  H    3.402100   4.847765   4.600109   1.081655   3.854867
    34  H    2.154732   4.012191   2.672019   3.859962   1.086070
    35  H    3.871561   6.063014   5.287881   2.128269   3.377879
    36  H    3.408186   5.775448   4.595279   3.391326   2.135799
                   21         22         23         24         25
    21  C    0.000000
    22  C    1.405001   0.000000
    23  H    3.409857   4.095471   0.000000
    24  H    4.668634   5.522430   2.431165   0.000000
    25  H    6.298953   7.441847   4.274633   2.492555   0.000000
    26  H    6.928632   8.186768   4.940132   4.283144   2.468952
    27  H    7.383528   8.569125   5.535093   5.888533   4.736518
    28  H    7.583165   8.532739   5.906741   7.117932   6.684726
    29  H    7.471087   8.075429   6.032447   7.881946   8.157797
    30  H    6.952504   7.127542   5.915207   8.187070   9.151161
    31  H    6.063509   5.777143   5.614620   8.036409   9.578473
    32  H    4.825233   4.046463   5.280521   7.556007   9.518032
    33  H    2.119183   3.385074   2.653027   3.981567   4.984008
    34  H    3.387256   2.136290   5.042724   6.872651   8.990411
    35  H    1.084859   2.161822   3.981333   4.710601   6.115228
    36  H    2.164222   1.084859   4.983511   6.114811   8.063643
                   26         27         28         29         30
    26  H    0.000000
    27  H    2.429618   0.000000
    28  H    4.710778   2.459839   0.000000
    29  H    6.638177   4.707508   2.408160   0.000000
    30  H    8.187482   6.702548   4.715662   2.467788   0.000000
    31  H    9.196837   8.224888   6.663092   4.715709   2.408211
    32  H    9.700117   9.273898   8.224879   6.702550   4.707503
    33  H    5.043059   5.280673   5.614627   5.915073   6.032298
    34  H    9.620804   9.700174   9.196912   8.187550   6.638247
    35  H    6.872981   7.556201   8.036514   8.187040   7.881887
    36  H    8.990463   9.518090   9.578528   9.151154   8.157779
                   31         32         33         34         35
    31  H    0.000000
    32  H    2.459794   0.000000
    33  H    5.906658   5.535064   0.000000
    34  H    4.710840   2.429724   4.940132   0.000000
    35  H    7.117907   5.888544   2.431234   4.283103   0.000000
    36  H    6.684717   4.736550   4.274641   2.468895   2.492527
                   36
    36  H    0.000000
 Stoichiometry    C22H14
 Framework group  C1[X(C22H14)]
 Deg. of freedom   102
 Full point group                 C1      NOp   1
 Largest Abelian subgroup         C1      NOp   1
 Largest concise Abelian subgroup C1      NOp   1
                         Standard orientation:                         
 ---------------------------------------------------------------------
 Center     Atomic      Atomic             Coordinates (Angstroms)
 Number     Number       Type             X           Y           Z
 ---------------------------------------------------------------------
      1          6           0        1.139349   -1.497088   -0.918775
      2          6           0        1.572082   -0.362797   -0.192410
      3          6           0        0.720364    0.792666    0.053169
      4          6           0        1.973226   -2.562358   -1.150155
      5          6           0        2.936876   -0.312296    0.184091
      6          6           0       -0.720366    0.792710   -0.053006
      7          6           0        1.362311    2.016235    0.322724
      8          6           0        3.293659   -2.551157   -0.670125
      9          6           0        3.766198   -1.435650   -0.028535
     10          6           0       -1.362207    2.016295   -0.322696
     11          6           0        3.488309    0.908076    0.683586
     12          6           0       -1.572137   -0.362709    0.192533
     13          6           0        2.747319    2.038346    0.681203
     14          6           0        0.647182    3.238171    0.204592
     15          6           0       -0.647038    3.238199   -0.204543
     16          6           0       -2.936876   -0.312232   -0.184208
     17          6           0       -2.747191    2.038421   -0.681326
     18          6           0       -3.488203    0.908174   -0.683774
     19          6           0       -1.139509   -1.496931    0.919053
     20          6           0       -3.766192   -1.435585    0.028281
     21          6           0       -1.973403   -2.562225    1.150300
     22          6           0       -3.293717   -2.551057    0.670014
     23          1           0        0.134926   -1.521768   -1.319421
     24          1           0        1.610463   -3.412317   -1.718391
     25          1           0        3.943245   -3.403186   -0.840397
     26          1           0        4.801228   -1.386680    0.296834
     27          1           0        4.531157    0.927741    0.984990
     28          1           0        3.189148    2.989141    0.963781
     29          1           0        1.172267    4.171035    0.385375
     30          1           0       -1.172123    4.171084   -0.385217
     31          1           0       -3.189004    2.989225   -0.963904
     32          1           0       -4.531048    0.927902   -0.985195
     33          1           0       -0.135142   -1.521554    1.319824
     34          1           0       -4.801227   -1.386628   -0.297072
     35          1           0       -1.610770   -3.412146    1.718675
     36          1           0       -3.943329   -3.403096    0.840167
 ---------------------------------------------------------------------
 Rotational constants (GHZ):           0.4503970           0.2830794           0.1874452
 Standard basis: 6-311G(d) (5D, 7F)
 There are   460 symmetry adapted cartesian basis functions of A   symmetry.
 There are   438 symmetry adapted basis functions of A   symmetry.
   438 basis functions,   774 primitive gaussians,   460 cartesian basis functions
    73 alpha electrons       73 beta electrons
       nuclear repulsion energy      1607.8715194182 Hartrees.
 NAtoms=   36 NActive=   36 NUniq=   36 SFac= 1.00D+00 NAtFMM=   60 NAOKFM=F Big=F
 Integral buffers will be    131072 words long.
 Regular integral format.
 Two-electron integral symmetry is turned on.
 ------------------------------------------------------------------------------
 Polarizable Continuum Model (PCM)
 =================================
 Model                : PCM.
 Atomic radii         : UFF (Universal Force Field).
 Polarization charges : Total charges.
 Charge compensation  : None.
 Solution method      : On-the-fly selection.
 Cavity type          : Scaled VdW (van der Waals Surface) (Alpha=1.100).
 Cavity algorithm     : GePol (No added spheres)
                        Default sphere list used, NSphG=   36.
                        Lebedev-Laikov grids with approx.  5.0 points / Ang**2.
                        Smoothing algorithm: York/Karplus (Gamma=1.0000).
                        Polarization charges: spherical gaussians, with
                                              point-specific exponents (IZeta= 3).
                        Self-potential: point-specific (ISelfS= 7).
                        Self-field    : sphere-specific E.n sum rule (ISelfD= 2).
 Solvent              : Chloroform, Eps=   4.711300 Eps(inf)=   2.090627
 ------------------------------------------------------------------------------
 One-electron integrals computed using PRISM.
 NBasis=   438 RedAO= T EigKep=  5.95D-05  NBF=   438
 NBsUse=   438 1.00D-06 EigRej= -1.00D+00 NBFU=   438
 ExpMin= 1.03D-01 ExpMax= 4.56D+03 ExpMxC= 6.82D+02 IAcc=3 IRadAn=         5 AccDes= 0.00D+00
 Harris functional with IExCor= 1009 and IRadAn=       5 diagonalized for initial guess.
 HarFok:  IExCor= 1009 AccDes= 0.00D+00 IRadAn=         5 IDoV= 1 UseB2=F ITyADJ=14
 ICtDFT=  3500011 ScaDFX=  1.000000  1.000000  1.000000  1.000000
 FoFCou: FMM=F IPFlag=           0 FMFlag=      100000 FMFlg1=           0
         NFxFlg=           0 DoJE=T BraDBF=F KetDBF=T FulRan=T
         wScrn=  0.000000 ICntrl=       500 IOpCl=  0 I1Cent=   200000004 NGrid=           0
         NMat0=    1 NMatS0=      1 NMatT0=    0 NMatD0=    1 NMtDS0=    0 NMtDT0=    0
 Petite list used in FoFCou.
 Requested convergence on RMS density matrix=1.00D-08 within 128 cycles.
 Requested convergence on MAX density matrix=1.00D-06.
 Requested convergence on             energy=1.00D-06.
 No special actions if energy rises.
 Inv3:  Mode=1 IEnd=    21035712.
 Iteration    1 A*A^-1 deviation from unit magnitude is 3.22D-15 for   1865.
 Iteration    1 A*A^-1 deviation from orthogonality  is 1.98D-15 for   2110    787.
 Iteration    1 A^-1*A deviation from unit magnitude is 3.33D-15 for    229.
 Iteration    1 A^-1*A deviation from orthogonality  is 1.54D-15 for   1706    379.
 Error on total polarization charges =  0.01256
 SCF Done:  E(RPBE1PBE) =  -845.966823892     A.U. after   12 cycles
            NFock= 12  Conv=0.64D-08     -V/T= 2.0038
 DoSCS=F DFT=T ScalE2(SS,OS)=  1.000000  1.000000
 ExpMin= 1.03D-01 ExpMax= 4.56D+03 ExpMxC= 6.82D+02 IAcc=3 IRadAn=         5 AccDes= 0.00D+00
 HarFok:  IExCor=  205 AccDes= 0.00D+00 IRadAn=         5 IDoV=-2 UseB2=F ITyADJ=14
 ICtDFT= 12500011 ScaDFX=  1.000000  1.000000  1.000000  1.000000
 GSVD:  LWork=        -660 too small for GESVD, short by        2750 words or        2750 for optimal perf.
 Range of M.O.s used for correlation:    23   438
 NBasis=   438 NAE=    73 NBE=    73 NFC=    22 NFV=     0
 NROrb=    416 NOA=    51 NOB=    51 NVA=   365 NVB=   365

 **** Warning!!: The largest alpha MO coefficient is  0.20200254D+02

 NEqPCM:  Using non-equilibrium solvation (IEInf=1, Eps=   4.7113, EpsInf=   2.0906)
 Inv3:  Mode=1 IEnd=    21035712.
 Iteration    1 A*A^-1 deviation from unit magnitude is 3.77D-15 for   2169.
 Iteration    1 A*A^-1 deviation from orthogonality  is 2.10D-15 for   1900   1629.
 Iteration    1 A^-1*A deviation from unit magnitude is 3.77D-15 for   2169.
 Iteration    1 A^-1*A deviation from orthogonality  is 2.21D-15 for   1465     53.
 Orbital symmetries:
       Occupied  (A) (A) (A) (A) (A) (A) (A) (A) (A) (A) (A) (A)
                 (A) (A) (A) (A) (A) (A) (A) (A) (A) (A) (A) (A)
                 (A) (A) (A) (A) (A) (A) (A) (A) (A) (A) (A) (A)
                 (A) (A) (A) (A) (A) (A) (A) (A) (A) (A) (A) (A)
                 (A) (A) (A) (A) (A) (A) (A) (A) (A) (A) (A) (A)
                 (A) (A) (A) (A) (A) (A) (A) (A) (A) (A) (A) (A)
                 (A)
       Virtual   (A) (A) (A) (A) (A) (A) (A) (A) (A) (A) (A) (A)
                 (A) (A) (A) (A) (A) (A) (A) (A) (A) (A) (A) (A)
                 (A) (A) (A) (A) (A) (A) (A) (A) (A) (A) (A) (A)
                 (A) (A) (A) (A) (A) (A) (A) (A) (A) (A) (A) (A)
                 (A) (A) (A) (A) (A) (A) (A) (A) (A) (A) (A) (A)
                 (A) (A) (A) (A) (A) (A) (A) (A) (A) (A) (A) (A)
                 (A) (A) (A) (A) (A) (A) (A) (A) (A) (A) (A) (A)
                 (A) (A) (A) (A) (A) (A) (A) (A) (A) (A) (A) (A)
                 (A) (A) (A) (A) (A) (A) (A) (A) (A) (A) (A) (A)
                 (A) (A) (A) (A) (A) (A) (A) (A) (A) (A) (A) (A)
                 (A) (A) (A) (A) (A) (A) (A) (A) (A) (A) (A) (A)
                 (A) (A) (A) (A) (A) (A) (A) (A) (A) (A) (A) (A)
                 (A) (A) (A) (A) (A) (A) (A) (A) (A) (A) (A) (A)
                 (A) (A) (A) (A) (A) (A) (A) (A) (A) (A) (A) (A)
                 (A) (A) (A) (A) (A) (A) (A) (A) (A) (A) (A) (A)
                 (A) (A) (A) (A) (A) (A) (A) (A) (A) (A) (A) (A)
                 (A) (A) (A) (A) (A) (A) (A) (A) (A) (A) (A) (A)
                 (A) (A) (A) (A) (A) (A) (A) (A) (A) (A) (A) (A)
                 (A) (A) (A) (A) (A) (A) (A) (A) (A) (A) (A) (A)
                 (A) (A) (A) (A) (A) (A) (A) (A) (A) (A) (A) (A)
                 (A) (A) (A) (A) (A) (A) (A) (A) (A) (A) (A) (A)
                 (A) (A) (A) (A) (A) (A) (A) (A) (A) (A) (A) (A)
                 (A) (A) (A) (A) (A) (A) (A) (A) (A) (A) (A) (A)
                 (A) (A) (A) (A) (A) (A) (A) (A) (A) (A) (A) (A)
                 (A) (A) (A) (A) (A) (A) (A) (A) (A) (A) (A) (A)
                 (A) (A) (A) (A) (A) (A) (A) (A) (A) (A) (A) (A)
                 (A) (A) (A) (A) (A) (A) (A) (A) (A) (A) (A) (A)
                 (A) (A) (A) (A) (A) (A) (A) (A) (A) (A) (A) (A)
                 (A) (A) (A) (A) (A) (A) (A) (A) (A) (A) (A) (A)
                 (A) (A) (A) (A) (A) (A) (A) (A) (A) (A) (A) (A)
                 (A) (A) (A) (A) (A)
   200 initial guesses have been made.
 Convergence on wavefunction:    0.001000000000000
 Iteration     1 Dimension   200 NMult     0 NNew    200
 CISAX will form   200 AO SS matrices at one time.
 New state      4 was old state      5
 New state      5 was old state      4
 New state      8 was old state     11
 New state      9 was old state     10
 New state     10 was old state     13
 New state     11 was old state     12
 New state     12 was old state     14
 New state     13 was old state     16
 New state     14 was old state     15
 New state     15 was old state     17
 New state     16 was old state     21
 New state     17 was old state     20
 New state     18 was old state     19
 New state     19 was old state      9
 New state     20 was old state     24
 New state     21 was old state     25
 New state     22 was old state     28
 New state     23 was old state     29
 New state     24 was old state     30
 New state     25 was old state     26
 New state     26 was old state     33
 New state     27 was old state     34
 New state     28 was old state     36
 New state     29 was old state     37
 New state     30 was old state     32
 New state     31 was old state     27
 New state     32 was old state     39
 New state     33 was old state     35
 New state     34 was old state     38
 New state     35 was old state     41
 New state     36 was old state     42
 New state     37 was old state     53
 New state     38 was old state     48
 New state     39 was old state     43
 New state     41 was old state     57
 New state     42 was old state     44
 New state     43 was old state     51
 New state     44 was old state     47
 New state     45 was old state     54
 New state     47 was old state     49
 New state     48 was old state     45
 New state     49 was old state     62
 New state     50 was old state     22
 Iteration     2 Dimension   300 NMult   200 NNew    100
 New state      4 was old state      5
 New state      5 was old state      4
 New state     13 was old state     15
 New state     14 was old state     13
 New state     15 was old state     19
 New state     16 was old state     14
 New state     17 was old state     20
 New state     18 was old state     16
 New state     19 was old state     18
 New state     20 was old state     17
 New state     22 was old state     24
 New state     23 was old state     22
 New state     24 was old state     23
 New state     26 was old state     31
 New state     27 was old state     26
 New state     28 was old state     27
 New state     29 was old state     28
 New state     31 was old state     29
 New state     32 was old state     50
 New state     33 was old state     32
 New state     34 was old state     33
 New state     35 was old state     49
 New state     36 was old state     34
 New state     37 was old state     36
 New state     38 was old state     37
 New state     39 was old state     35
 New state     40 was old state     39
 New state     41 was old state     38
 New state     42 was old state     40
 New state     43 was old state     41
 New state     44 was old state     42
 New state     45 was old state     46
 New state     46 was old state     43
 New state     47 was old state     44
 New state     48 was old state     45
 New state     49 was old state     48
 New state     50 was old state     64
 Iteration     3 Dimension   400 NMult   300 NNew    100
 New state     14 was old state     15
 New state     15 was old state     14
 New state     27 was old state     28
 New state     28 was old state     27
 New state     31 was old state     32
 New state     32 was old state     31
 Iteration     4 Dimension   500 NMult   400 NNew    100
 Iteration     5 Dimension   534 NMult   500 NNew     34
 ***********************************************************************
 Excited states from <AA,BB:AA,BB> singles matrix:
 ***********************************************************************
 
 Ground to excited state transition densities written to RWF  633
 Ground to excited state transition electric dipole moments (Au):
       state          X           Y           Z        Dip. S.      Osc.
         1         0.0001      0.1670     -0.0000      0.0279      0.0024
         2        -0.3328      0.0001     -0.1296      0.1276      0.0118
         3        -2.3577      0.0001      0.2897      5.6425      0.5474
         4        -0.0002     -1.1045      0.0001      1.2198      0.1241
         5         0.5227     -0.0002      0.0990      0.2830      0.0294
         6         0.0001      0.3436     -0.0000      0.1180      0.0128
         7        -0.0003     -1.2487     -0.0001      1.5593      0.1746
         8         1.9198     -0.0002      0.2287      3.7379      0.4304
         9        -0.1348     -0.0004     -0.0360      0.0195      0.0023
        10        -0.0000     -0.7432      0.0000      0.5524      0.0670
        11         0.7602     -0.0001      0.2223      0.6272      0.0803
        12        -0.0002      0.1054      0.0014      0.0111      0.0015
        13         0.1078      0.0002     -0.7945      0.6429      0.0857
        14        -0.0002     -2.9389     -0.0001      8.6373      1.1801
        15         0.2314     -0.0018      0.0330      0.0546      0.0075
        16        -0.0001     -0.4981     -0.0000      0.2481      0.0344
        17        -0.9987      0.0002     -0.2930      1.0832      0.1546
        18        -0.0000      0.6247     -0.0000      0.3903      0.0562
        19        -0.0007     -0.7058     -0.0002      0.4982      0.0721
        20        -0.2665      0.0010     -0.0859      0.0784      0.0114
        21        -0.0002     -0.7810      0.0001      0.6099      0.0910
        22         0.0427      0.0000      0.2649      0.0720      0.0110
        23         0.0000      0.2920     -0.0001      0.0852      0.0132
        24         0.0000     -0.3378      0.0001      0.1141      0.0177
        25         1.1559     -0.0004      0.3492      1.4581      0.2277
        26         0.0000      1.4752     -0.0000      2.1763      0.3405
        27        -0.5354      0.0021      0.1073      0.2982      0.0474
        28        -0.0030     -0.4233      0.0005      0.1792      0.0285
        29        -0.2430     -0.0005     -0.0759      0.0648      0.0104
        30         0.7342      0.0003     -0.0616      0.5428      0.0877
        31        -0.0002     -0.4572     -0.0001      0.2091      0.0338
        32        -0.0005      0.6898      0.0000      0.4758      0.0771
        33        -0.1739      0.0003      0.1851      0.0645      0.0105
        34        -0.0001      0.0275     -0.0002      0.0008      0.0001
        35        -0.6035     -0.0000      0.2935      0.4504      0.0750
        36        -0.9750     -0.0001     -0.4644      1.1662      0.1951
        37         0.0904     -0.0001      0.1584      0.0332      0.0056
        38         0.0001      0.0243     -0.0000      0.0006      0.0001
        39        -0.1199     -0.0002      0.0013      0.0144      0.0025
        40         0.0006      0.4481      0.0003      0.2008      0.0346
        41        -0.2543      0.0003     -0.0728      0.0699      0.0121
        42        -0.3849      0.0003     -0.0105      0.1483      0.0257
        43        -0.2473      0.0003     -0.3332      0.1722      0.0299
        44         0.0003      0.0863      0.0002      0.0075      0.0013
        45        -0.0005      0.1265     -0.0003      0.0160      0.0028
        46         0.2636      0.0001      0.2062      0.1120      0.0196
        47        -0.3049      0.0001     -0.4189      0.2685      0.0473
        48        -0.0003     -0.0386     -0.0004      0.0015      0.0003
        49         0.0380      0.0001      0.0954      0.0105      0.0019
        50         0.1119     -0.0000      0.3436      0.1306      0.0232
 Ground to excited state transition velocity dipole moments (Au):
       state          X           Y           Z        Dip. S.      Osc.
         1        -0.0000     -0.0224      0.0000      0.0005      0.0026
         2         0.0475     -0.0000      0.0193      0.0026      0.0127
         3         0.3423     -0.0000     -0.0449      0.1192      0.5460
         4         0.0000      0.1700     -0.0000      0.0289      0.1262
         5        -0.0822      0.0000     -0.0179      0.0071      0.0303
         6        -0.0000     -0.0530      0.0000      0.0028      0.0115
         7         0.0001      0.2128      0.0000      0.0453      0.1797
         8        -0.3357      0.0000     -0.0454      0.1147      0.4428
         9         0.0300      0.0001      0.0104      0.0010      0.0037
        10         0.0000      0.1322     -0.0000      0.0175      0.0640
        11        -0.1538      0.0000     -0.0463      0.0258      0.0896
        12         0.0000     -0.0237     -0.0003      0.0006      0.0019
        13        -0.0169     -0.0000      0.1574      0.0251      0.0836
        14         0.0000      0.5961      0.0000      0.3554      1.1560
        15        -0.0482      0.0004     -0.0047      0.0023      0.0076
        16         0.0000      0.1026      0.0000      0.0105      0.0337
        17         0.2051     -0.0000      0.0626      0.0460      0.1433
        18         0.0000     -0.1386      0.0000      0.0192      0.0593
        19         0.0002      0.1511      0.0000      0.0228      0.0700
        20         0.0617     -0.0002      0.0199      0.0042      0.0129
        21         0.0000      0.1780     -0.0000      0.0317      0.0944
        22        -0.0130      0.0000     -0.0586      0.0036      0.0105
        23        -0.0000     -0.0659      0.0000      0.0043      0.0125
        24        -0.0000      0.0750     -0.0000      0.0056      0.0161
        25        -0.2654      0.0001     -0.0857      0.0778      0.2215
        26        -0.0000     -0.3391     -0.0000      0.1150      0.3266
        27         0.1291     -0.0005     -0.0246      0.0173      0.0483
        28         0.0007      0.0939     -0.0001      0.0088      0.0247
        29         0.0549      0.0001      0.0182      0.0033      0.0093
        30        -0.1714     -0.0001      0.0067      0.0294      0.0809
        31         0.0000      0.1055      0.0000      0.0111      0.0306
        32         0.0001     -0.1648     -0.0000      0.0272      0.0745
        33         0.0496     -0.0001     -0.0456      0.0045      0.0124
        34         0.0000     -0.0056      0.0000      0.0000      0.0001
        35         0.1456      0.0000     -0.0695      0.0260      0.0695
        36         0.2378      0.0000      0.1150      0.0698      0.1853
        37        -0.0227      0.0000     -0.0401      0.0021      0.0056
        38        -0.0000     -0.0099      0.0000      0.0001      0.0003
        39         0.0287      0.0001      0.0051      0.0009      0.0022
        40        -0.0001     -0.1144     -0.0001      0.0131      0.0337
        41         0.0658     -0.0001      0.0146      0.0045      0.0117
        42         0.0958     -0.0001      0.0024      0.0092      0.0235
        43         0.0640     -0.0001      0.0843      0.0112      0.0287
        44        -0.0001     -0.0220     -0.0000      0.0005      0.0012
        45         0.0001     -0.0309      0.0001      0.0010      0.0024
        46        -0.0688     -0.0000     -0.0472      0.0070      0.0177
        47         0.0751     -0.0000      0.1135      0.0185      0.0466
        48         0.0001      0.0096      0.0001      0.0001      0.0002
        49        -0.0118     -0.0000     -0.0136      0.0003      0.0008
        50        -0.0327      0.0000     -0.0909      0.0093      0.0233
 Ground to excited state transition magnetic dipole moments (Au):
       state          X           Y           Z
         1        -0.0000      0.1141      0.0001
         2         0.0181      0.0001     -0.0473
         3         0.3505      0.0000     -3.4340
         4         0.0001     -0.5696     -0.0001
         5        -0.0742     -0.0001      0.2072
         6        -0.0001      0.1593      0.0003
         7         0.0000     -0.2618     -0.0001
         8         0.0048     -0.0002      0.1523
         9        -0.0907     -0.0001      0.4257
        10         0.0000     -0.1282     -0.0003
        11         0.1089     -0.0001     -0.5360
        12         0.0004      0.0356     -0.0037
        13        -0.2453      0.0001      2.0769
        14        -0.0001     -0.4249      0.0003
        15         0.1438     -0.0003     -0.2169
        16        -0.0000     -0.2028      0.0000
        17         0.1794      0.0000     -0.0994
        18         0.0000      0.0435      0.0001
        19         0.0001     -0.0751      0.0000
        20         0.0384      0.0001      0.0477
        21         0.0000     -0.7535     -0.0001
        22        -0.0884      0.0000      0.0599
        23        -0.0000      0.6451      0.0000
        24        -0.0000     -0.2721     -0.0001
        25        -0.1389     -0.0002      0.0672
        26        -0.0000      0.8803     -0.0003
        27        -0.1137      0.0008     -0.5871
        28        -0.0005     -0.1319     -0.0031
        29         0.0241     -0.0002     -0.2575
        30        -0.0305      0.0002      0.6097
        31        -0.0002      0.6258     -0.0001
        32         0.0000      0.0594     -0.0004
        33        -0.1536      0.0000     -0.1009
        34         0.0002      0.4658     -0.0003
        35        -0.6352      0.0003      1.0038
        36        -0.0594     -0.0001      1.3652
        37        -0.0834     -0.0001     -0.6187
        38        -0.0001      0.1905     -0.0001
        39         0.1006     -0.0002      0.1917
        40         0.0001      0.4689     -0.0010
        41        -0.2618      0.0004      0.6323
        42         0.2114      0.0003      0.3471
        43        -0.1153      0.0004      0.5712
        44        -0.0001     -0.3865     -0.0005
        45        -0.0000     -0.1573      0.0008
        46         0.1526      0.0000     -0.5179
        47        -0.0067     -0.0000      1.0212
        48        -0.0002     -0.0187      0.0008
        49         0.1513     -0.0001     -0.0485
        50        -0.0931      0.0002     -0.5617
 Ground to excited state transition velocity quadrupole moments (Au):
       state          XX          YY          ZZ          XY          XZ          YZ
         1        -0.1526     -0.0258      0.0099      0.0000     -0.0475     -0.0000
         2        -0.0000     -0.0001      0.0000      0.0193     -0.0001     -0.0838
         3        -0.0000      0.0000     -0.0000     -0.6505     -0.0000      0.4246
         4         0.7445      0.5075     -0.0449     -0.0000      0.2778      0.0000
         5         0.0002      0.0001     -0.0000      0.0073      0.0001     -0.0259
         6         0.1675     -0.1367      0.0206      0.0001     -0.0022     -0.0000
         7        -0.5265      0.2895     -0.0272      0.0000      0.1681      0.0000
         8        -0.0001      0.0000     -0.0000      0.2821      0.0001     -0.1409
         9        -0.0001      0.0000      0.0000      0.0050      0.0001     -0.0040
        10        -0.3833      0.0845      0.0018     -0.0000      0.1353      0.0000
        11        -0.0001      0.0000     -0.0000      0.1613      0.0001      0.0222
        12        -0.0595      0.0083      0.0298     -0.0033     -0.0154      0.0006
        13         0.0002     -0.0001      0.0001      1.8513     -0.0001     -0.3272
        14        -2.1174      0.3885     -0.1265      0.0001      0.5261     -0.0000
        15        -0.0014      0.0002     -0.0001      0.0859      0.0004      0.0153
        16        -0.1808      0.1915      0.0016     -0.0000      0.1072     -0.0000
        17         0.0002     -0.0002     -0.0000      1.0643     -0.0000      0.1346
        18        -0.0526     -0.0696     -0.0026      0.0000     -0.2198      0.0000
        19         0.1003      0.2970     -0.0300      0.0005      0.1769      0.0000
        20        -0.0002     -0.0005      0.0000      0.2339     -0.0003     -0.0159
        21         1.1955     -0.4015     -0.1711     -0.0001      0.4950      0.0000
        22        -0.0001      0.0000      0.0000     -1.2996     -0.0000     -0.0255
        23        -1.1376      0.7070      0.1562      0.0002     -0.3018     -0.0000
        24         1.0031     -0.5588     -0.1082     -0.0000      0.3534      0.0000
        25        -0.0003      0.0000     -0.0000     -0.4755      0.0002     -0.0323
        26        -0.0180      0.8037      0.2296      0.0002     -0.5672      0.0000
        27         0.0002      0.0020      0.0002     -0.5887     -0.0008      0.1844
        28        -0.0879     -0.3986     -0.0356     -0.0027      0.1418      0.0009
        29        -0.0001     -0.0003     -0.0000      0.3989      0.0003      0.0105
        30        -0.0003     -0.0000      0.0001      0.3422     -0.0001     -0.1316
        31        -1.6173     -0.1006      0.1852     -0.0001      0.0973     -0.0001
        32         0.7304     -0.1305      0.0230      0.0002     -0.1166      0.0001
        33         0.0003      0.0000      0.0000     -1.4189     -0.0001      0.0133
        34        -2.4780      1.6342      0.0241      0.0007     -0.8020      0.0001
        35        -0.0006      0.0003      0.0001     -2.4765     -0.0002     -0.2051
        36         0.0005     -0.0001     -0.0000      0.9577     -0.0000     -0.0460
        37         0.0001     -0.0001      0.0000     -0.6485      0.0000      0.0035
        38        -1.4919      0.8857     -0.0109     -0.0000     -0.3646     -0.0001
        39        -0.0002     -0.0001      0.0000     -0.4997      0.0001      0.1274
        40        -0.4455      0.8660     -0.1207     -0.0013     -0.5032     -0.0002
        41        -0.0002      0.0006     -0.0001     -0.1010     -0.0004      0.0119
        42         0.0002      0.0007     -0.0002      0.1006     -0.0004      0.2410
        43         0.0000      0.0008     -0.0002      1.3726     -0.0005      0.0156
        44         0.0377      0.2905      0.1260     -0.0003     -0.0558     -0.0000
        45        -0.9497      0.1884      0.2314      0.0009      0.0166      0.0000
        46        -0.0001     -0.0001      0.0000     -0.0346      0.0000      0.1126
        47         0.0003      0.0002     -0.0000      1.1029     -0.0000     -0.1943
        48        -0.1146     -0.1649     -0.0103      0.0024      0.0219     -0.0006
        49        -0.0004     -0.0002      0.0001     -0.9983      0.0000      0.2899
        50        -0.0002     -0.0000      0.0001     -1.1539     -0.0001      0.2060
 <0|del|b> * <b|rxdel|0> + <0|del|b> * <b|delr+rdel|0>
 Rotatory Strengths (R) in cgs (10**-40 erg-esu-cm/Gauss)
       state          XX          YY          ZZ    R(velocity)    E-M Angle
         1        -9.8581      0.0000     -4.0682     -4.6421       90.00
         2        -1.3818    -11.2689     12.3863     -0.0881       90.00
         3       445.7455    948.4448    -61.6473    444.1810       76.70
         4      -333.6679      0.0000   -114.8851   -149.5177       90.00
         5        -8.6930     10.5538      9.0025      3.6211       82.57
         6       -18.6249      0.0000    -18.1097    -12.2448       90.00
         7      -192.5734      0.0000    -41.9396    -78.1710       90.00
         8       -40.3812    105.5512   -100.1260    -11.6520       99.52
         9         8.8100      3.0326     -5.1026      2.2467       82.86
        10       -67.6935      0.0000      1.8446    -21.9496       90.00
        11        31.9569     22.3723    -24.5500      9.9264       84.72
        12        -2.1450      0.0003     -0.8503     -0.9984       90.00
        13      1093.0833     79.9108     -2.4504    390.1812        0.60
        14      -978.1395     -0.0000    104.1187   -291.3403      179.96
        15         1.0534    -10.7764    -10.6702     -6.7977      118.01
        16       -54.0126     -0.0000    -16.6610    -23.5579       90.00
        17        99.8152    -14.0206     15.1754     33.6567       45.97
        18       -59.7795      0.0000     40.0110     -6.5895       90.00
        19       -61.9804     -0.0000     25.0333    -12.3157       90.00
        20         9.0942     -3.7533      5.4445      3.5951       33.25
        21      -351.2202      0.0000    -72.7213   -141.3139       90.00
        22       112.4014   -120.9594      1.2691     -2.4296      111.57
        23       -94.9843     -0.0000    -34.4299    -43.1381       90.00
        24       -71.1437      0.0000      9.2506    -20.6310       90.00
        25        52.8329     -1.6273     42.7208     31.3088       43.71
        26      -739.5237      0.0000   -159.9170   -299.8136       90.00
        27        42.8556     13.4690    -57.0416     -0.2390       90.18
        28       -38.1154      0.0005      1.3765    -12.2461      178.56
        29         3.7810    -14.7640      1.0979     -3.2950      102.97
        30         9.3723     43.1622    -25.2688      9.0886       84.88
        31        81.2047     -0.0000    111.1126     64.1058       90.00
        32       -42.2123      0.0000     13.7344     -9.4926       90.00
        33       100.3772    -97.1382    -12.0023     -2.9211      104.13
        34       -10.1264     -0.0001      2.6856     -2.4803       90.00
        35       144.9719   -515.9331    -88.7122   -153.2245      147.84
        36       376.4103     30.7066     -4.4794    134.2125       66.68
        37        70.8030      0.8610      2.7523     24.8054       21.87
        38        -7.6053      0.0000      2.3862     -1.7397       90.00
        39        -2.1791     13.9036     -1.0562      3.5561       52.15
        40      -151.8903     -0.0000      5.3625    -48.8426      179.83
        41        10.5463     -7.8676    -24.5634     -7.2949      100.02
        42         1.4914     59.7879     -3.8573     19.1407       57.19
        43       222.8901   -100.5613    -11.3948     36.9780       48.61
        44         9.8548      0.0000     13.1784      7.6778       90.00
        45         7.2831     -0.0000      5.8932      4.3921       90.00
        46        35.0803      6.1088     -3.7021     12.4956       71.99
        47       322.1298    -32.5586     18.8231    102.7981       33.87
        48        -0.5176     -0.0003      0.0413     -0.1589       90.00
        49        19.0272    -24.1918      2.1769     -0.9959      113.05
        50       206.6276    -76.2143     12.9650     47.7928       10.39
 1/2[<0|r|b>*<b|rxdel|0> + (<0|rxdel|b>*<b|r|0>)*]
 Rotatory Strengths (R) in cgs (10**-40 erg-esu-cm/Gauss)
       state          XX          YY          ZZ     R(length)
         1         0.0000    -13.4764      0.0000     -4.4921
         2         4.2700     -0.0000     -4.3347     -0.0216
         3       584.3730     -0.0000    703.5704    429.3145
         4         0.0000   -444.8625      0.0000   -148.2875
         5        27.4180     -0.0000    -14.5139      4.3013
         6         0.0000    -38.6921      0.0000    -12.8974
         7         0.0000   -231.1601     -0.0000    -77.0534
         8        -6.5541     -0.0000    -24.6347    -10.3963
         9        -8.6528     -0.0000     10.8397      0.7289
        10         0.0000    -67.3607      0.0000    -22.4536
        11       -58.5230     -0.0000     84.2498      8.5756
        12         0.0001     -2.6571      0.0037     -0.8844
        13        18.6994     -0.0000   1166.9089    395.2028
        14        -0.0000   -883.0890      0.0000   -294.3630
        15       -23.5334     -0.0004      5.0637     -6.1567
        16        -0.0000    -71.4240      0.0000    -23.8080
        17       126.6647     -0.0000    -20.5915     35.3577
        18         0.0000    -19.2353      0.0000     -6.4118
        19         0.0000    -37.4952      0.0000    -12.4984
        20         7.2432     -0.0001      2.8944      3.3792
        21         0.0000   -416.1444      0.0000   -138.7148
        22         2.6700     -0.0000    -11.2154     -2.8485
        23         0.0000   -133.1867      0.0000    -44.3956
        24         0.0000    -65.0032      0.0000    -21.6677
        25       113.5249     -0.0001    -16.5922     32.3109
        26         0.0000   -918.3237     -0.0000   -306.1079
        27       -43.0479     -0.0012     44.5635      0.5048
        28        -0.0011    -39.4850      0.0011    -13.1617
        29         4.1385     -0.0001    -13.8254     -3.2290
        30        15.8427     -0.0000     26.5587     14.1338
        31        -0.0000    202.3385     -0.0000     67.4461
        32         0.0000    -28.9636      0.0000     -9.6545
        33       -18.8921     -0.0000     13.2047     -1.8958
        34         0.0000     -9.0590     -0.0000     -3.0197
        35      -271.1099      0.0000   -208.3848   -159.8316
        36       -40.9633     -0.0000    448.3241    135.7869
        37         5.3297     -0.0000     69.2778     24.8691
        38         0.0000     -3.2697     -0.0000     -1.0899
        39         8.5311     -0.0000     -0.1747      2.7854
        40        -0.0001   -148.5755      0.0002    -49.5251
        41       -47.0697     -0.0001     32.5378     -4.8440
        42        57.5507     -0.0001      2.5717     20.0408
        43       -20.1698     -0.0001    134.6198     38.1499
        44         0.0000     23.5907      0.0001      7.8636
        45        -0.0000     14.0678      0.0002      4.6893
        46       -28.4474     -0.0000     75.5045     15.6857
        47        -1.4434      0.0000    302.5394    100.3654
        48        -0.0000     -0.5099      0.0002     -0.1699
        49        -4.0609      0.0000      3.2681     -0.2643
        50         7.3681      0.0000    136.5018     47.9566
  1/2[<0|del|b>*<b|r|0> + (<0|r|b>*<b|del|0>)*] (Au)
       state          X           Y           Z        Dip. S.   Osc.(frdel)
         1        -0.0000     -0.0037     -0.0000      0.0037      0.0025
         2        -0.0158     -0.0000     -0.0025      0.0183      0.0122
         3        -0.8070     -0.0000     -0.0130      0.8200      0.5467
         4        -0.0000     -0.1877     -0.0000      0.1877      0.1252
         5        -0.0430     -0.0000     -0.0018      0.0447      0.0298
         6        -0.0000     -0.0182     -0.0000      0.0182      0.0121
         7        -0.0000     -0.2657     -0.0000      0.2657      0.1771
         8        -0.6444     -0.0000     -0.0104      0.6548      0.4365
         9        -0.0040     -0.0000     -0.0004      0.0044      0.0029
        10        -0.0000     -0.0983     -0.0000      0.0983      0.0655
        11        -0.1169     -0.0000     -0.0103      0.1272      0.0848
        12        -0.0000     -0.0025     -0.0000      0.0025      0.0017
        13        -0.0018     -0.0000     -0.1251      0.1269      0.0846
        14        -0.0000     -1.7520     -0.0000      1.7520      1.1680
        15        -0.0112     -0.0000     -0.0002      0.0113      0.0075
        16        -0.0000     -0.0511     -0.0000      0.0511      0.0341
        17        -0.2049     -0.0000     -0.0183      0.2232      0.1488
        18        -0.0000     -0.0866     -0.0000      0.0866      0.0577
        19        -0.0000     -0.1066     -0.0000      0.1066      0.0711
        20        -0.0164     -0.0000     -0.0017      0.0181      0.0121
        21        -0.0000     -0.1390     -0.0000      0.1390      0.0927
        22        -0.0006      0.0000     -0.0155      0.0161      0.0107
        23        -0.0000     -0.0192     -0.0000      0.0192      0.0128
        24        -0.0000     -0.0253     -0.0000      0.0253      0.0169
        25        -0.3068     -0.0000     -0.0299      0.3368      0.2245
        26        -0.0000     -0.5002      0.0000      0.5002      0.3335
        27        -0.0691     -0.0000     -0.0026      0.0717      0.0478
        28        -0.0000     -0.0398     -0.0000      0.0398      0.0265
        29        -0.0133     -0.0000     -0.0014      0.0147      0.0098
        30        -0.1258     -0.0000     -0.0004      0.1263      0.0842
        31        -0.0000     -0.0482     -0.0000      0.0482      0.0321
        32        -0.0000     -0.1137     -0.0000      0.1137      0.0758
        33        -0.0086     -0.0000     -0.0084      0.0171      0.0114
        34        -0.0000     -0.0002     -0.0000      0.0002      0.0001
        35        -0.0879     -0.0000     -0.0204      0.1083      0.0722
        36        -0.2318     -0.0000     -0.0534      0.2853      0.1902
        37        -0.0021     -0.0000     -0.0063      0.0084      0.0056
        38        -0.0000     -0.0002     -0.0000      0.0002      0.0002
        39        -0.0034     -0.0000      0.0000      0.0034      0.0023
        40        -0.0000     -0.0512     -0.0000      0.0512      0.0342
        41        -0.0167     -0.0000     -0.0011      0.0178      0.0119
        42        -0.0369     -0.0000     -0.0000      0.0369      0.0246
        43        -0.0158     -0.0000     -0.0281      0.0439      0.0293
        44        -0.0000     -0.0019     -0.0000      0.0019      0.0013
        45        -0.0000     -0.0039     -0.0000      0.0039      0.0026
        46        -0.0181     -0.0000     -0.0097      0.0279      0.0186
        47        -0.0229     -0.0000     -0.0475      0.0704      0.0470
        48        -0.0000     -0.0004     -0.0000      0.0004      0.0002
        49        -0.0004     -0.0000     -0.0013      0.0017      0.0012
        50        -0.0037     -0.0000     -0.0312      0.0349      0.0233

 Excitation energies and oscillator strengths:
 
 Excited State   1:      Singlet-A      3.5375 eV  350.49 nm  f=0.0024  <S**2>=0.000
      72 -> 75         0.43192
      73 -> 74         0.55109
 This state for optimization and/or second-order correction.
 Total Energy, E(TD-HF/TD-DFT) =  -845.836824386    
 Copying the excited state density for this state as the 1-particle RhoCI density.
 
 Excited State   2:      Singlet-A      3.7608 eV  329.68 nm  f=0.0118  <S**2>=0.000
      72 -> 74        -0.47810
      73 -> 75         0.51317
 
 Excited State   3:      Singlet-A      3.9597 eV  313.12 nm  f=0.5474  <S**2>=0.000
      71 -> 74         0.11817
      72 -> 74         0.51178
      73 -> 75         0.46194
 
 Excited State   4:      Singlet-A      4.1538 eV  298.49 nm  f=0.1241  <S**2>=0.000
      72 -> 75         0.53622
      73 -> 74        -0.42408
      73 -> 76        -0.12136
 
 Excited State   5:      Singlet-A      4.2410 eV  292.35 nm  f=0.0294  <S**2>=0.000
      70 -> 75        -0.15212
      71 -> 74         0.57801
      72 -> 76        -0.33853
      73 -> 77        -0.13170
 
 Excited State   6:      Singlet-A      4.4194 eV  280.54 nm  f=0.0128  <S**2>=0.000
      71 -> 75         0.59973
      73 -> 76         0.35837
 
 Excited State   7:      Singlet-A      4.5701 eV  271.29 nm  f=0.1746  <S**2>=0.000
      70 -> 74        -0.28515
      71 -> 75        -0.29117
      72 -> 75         0.12265
      72 -> 77        -0.12928
      73 -> 76         0.54003
 
 Excited State   8:      Singlet-A      4.6995 eV  263.82 nm  f=0.4304  <S**2>=0.000
      71 -> 74         0.36273
      72 -> 76         0.55239
      73 -> 75        -0.10478
      73 -> 77         0.17916
 
 Excited State   9:      Singlet-A      4.9058 eV  252.73 nm  f=0.0023  <S**2>=0.000
      70 -> 75         0.49975
      72 -> 76        -0.23405
      73 -> 77         0.42380
 
 Excited State  10:      Singlet-A      4.9515 eV  250.39 nm  f=0.0670  <S**2>=0.000
      70 -> 74         0.49453
      71 -> 77        -0.11347
      72 -> 77        -0.42685
      73 -> 76         0.12327
 
 Excited State  11:      Singlet-A      5.2256 eV  237.26 nm  f=0.0803  <S**2>=0.000
      70 -> 75         0.32130
      71 -> 76         0.48277
      73 -> 77        -0.39128
 
 Excited State  12:      Singlet-A      5.4290 eV  228.37 nm  f=0.0015  <S**2>=0.000
      68 -> 75        -0.16164
      69 -> 74         0.38072
      70 -> 74        -0.15339
      70 -> 76         0.27902
      71 -> 77        -0.32042
      72 -> 77         0.13467
      72 -> 78        -0.28678
      73 -> 79         0.11125
 
 Excited State  13:      Singlet-A      5.4438 eV  227.75 nm  f=0.0857  <S**2>=0.000
      69 -> 75         0.16106
      70 -> 75        -0.30786
      71 -> 76         0.48298
      73 -> 77         0.30973
      73 -> 78        -0.13903
 
 Excited State  14:      Singlet-A      5.5769 eV  222.32 nm  f=1.1801  <S**2>=0.000
      70 -> 74         0.35404
      71 -> 75        -0.16975
      72 -> 77         0.51466
      73 -> 76         0.20071
 
 Excited State  15:      Singlet-A      5.5903 eV  221.78 nm  f=0.0075  <S**2>=0.000
      69 -> 75         0.51366
      73 -> 78         0.46518
 
 Excited State  16:      Singlet-A      5.6663 eV  218.81 nm  f=0.0344  <S**2>=0.000
      69 -> 74         0.46656
      70 -> 76        -0.25543
      71 -> 77         0.39396
      72 -> 78        -0.17705
 
 Excited State  17:      Singlet-A      5.8254 eV  212.83 nm  f=0.1546  <S**2>=0.000
      67 -> 74         0.15459
      68 -> 74        -0.17737
      69 -> 75        -0.40126
      70 -> 75        -0.11565
      72 -> 79         0.10861
      73 -> 78         0.47681
 
 Excited State  18:      Singlet-A      5.8745 eV  211.06 nm  f=0.0562  <S**2>=0.000
      68 -> 75         0.42311
      69 -> 74        -0.12185
      70 -> 76        -0.16820
      71 -> 77        -0.24249
      72 -> 78        -0.38632
      73 -> 79        -0.24000
 
 Excited State  19:      Singlet-A      5.9099 eV  209.79 nm  f=0.0721  <S**2>=0.000
      68 -> 75         0.32837
      69 -> 74         0.20138
      70 -> 76         0.39636
      72 -> 78         0.29986
      73 -> 79        -0.30091
 
 Excited State  20:      Singlet-A      5.9204 eV  209.42 nm  f=0.0114  <S**2>=0.000
      67 -> 74         0.24574
      68 -> 74         0.54186
      72 -> 79         0.34414
 
 Excited State  21:      Singlet-A      6.0877 eV  203.66 nm  f=0.0910  <S**2>=0.000
      67 -> 75        -0.20896
      68 -> 75         0.22344
      69 -> 74        -0.15701
      70 -> 76         0.31947
      71 -> 77         0.33108
      72 -> 78        -0.25986
      73 -> 79         0.29874
 
 Excited State  22:      Singlet-A      6.2224 eV  199.25 nm  f=0.0110  <S**2>=0.000
      67 -> 74         0.55415
      68 -> 74        -0.18726
      68 -> 76        -0.10289
      69 -> 75         0.13469
      71 -> 79        -0.10960
      72 -> 79        -0.18340
      72 -> 80        -0.20719
 
 Excited State  23:      Singlet-A      6.3223 eV  196.11 nm  f=0.0132  <S**2>=0.000
      67 -> 75        -0.23513
      68 -> 75         0.15958
      69 -> 74         0.11164
      69 -> 76        -0.35316
      70 -> 76        -0.14461
      71 -> 78         0.37217
      72 -> 78         0.13610
      73 -> 80        -0.23947
 
 Excited State  24:      Singlet-A      6.3456 eV  195.39 nm  f=0.0177  <S**2>=0.000
      66 -> 74        -0.10529
      67 -> 75         0.42009
      69 -> 76        -0.30897
      71 -> 77         0.12935
      71 -> 78         0.29839
      73 -> 80         0.27241
 
 Excited State  25:      Singlet-A      6.3733 eV  194.54 nm  f=0.2277  <S**2>=0.000
      65 -> 74        -0.10017
      68 -> 74        -0.22446
      69 -> 77         0.10824
      70 -> 77        -0.42890
      72 -> 79         0.43481
      72 -> 80        -0.12570
 
 Excited State  26:      Singlet-A      6.3855 eV  194.16 nm  f=0.3405  <S**2>=0.000
      67 -> 75         0.28375
      68 -> 75         0.28721
      69 -> 74         0.10855
      70 -> 76        -0.11401
      71 -> 78        -0.18582
      72 -> 78         0.16409
      73 -> 79         0.44606
 
 Excited State  27:      Singlet-A      6.4886 eV  191.08 nm  f=0.0474  <S**2>=0.000
      65 -> 74        -0.13465
      66 -> 75         0.21910
      67 -> 74        -0.19408
      68 -> 74        -0.10537
      68 -> 76        -0.25701
      69 -> 77         0.14603
      70 -> 77         0.42930
      70 -> 78        -0.12464
      71 -> 79        -0.17198
      72 -> 80        -0.18604
 
 Excited State  28:      Singlet-A      6.4897 eV  191.05 nm  f=0.0285  <S**2>=0.000
      66 -> 74         0.65977
      71 -> 78         0.11821
 
 Excited State  29:      Singlet-A      6.5350 eV  189.72 nm  f=0.0104  <S**2>=0.000
      65 -> 74         0.26605
      66 -> 75         0.59079
      70 -> 77        -0.13172
 
 Excited State  30:      Singlet-A      6.5952 eV  187.99 nm  f=0.0877  <S**2>=0.000
      65 -> 74         0.60423
      66 -> 75        -0.21302
      67 -> 74        -0.15602
      72 -> 80        -0.11323
 
 Excited State  31:      Singlet-A      6.6031 eV  187.77 nm  f=0.0338  <S**2>=0.000
      64 -> 74         0.13148
      65 -> 75         0.18083
      66 -> 74        -0.10578
      69 -> 76         0.45310
      71 -> 78         0.42091
      73 -> 79         0.10048
 
 Excited State  32:      Singlet-A      6.6120 eV  187.51 nm  f=0.0771  <S**2>=0.000
      65 -> 75         0.63689
      69 -> 76        -0.14651
      71 -> 78        -0.11025
      73 -> 80        -0.16200
 
 Excited State  33:      Singlet-A      6.6421 eV  186.66 nm  f=0.0105  <S**2>=0.000
      67 -> 74         0.11170
      68 -> 74        -0.16385
      68 -> 76         0.36852
      70 -> 77         0.26779
      70 -> 78         0.17619
      71 -> 79         0.28206
      72 -> 79         0.25838
      72 -> 80        -0.15810
      73 -> 78        -0.10247
 
 Excited State  34:      Singlet-A      6.7418 eV  183.90 nm  f=0.0001  <S**2>=0.000
      65 -> 75         0.11220
      67 -> 75        -0.29303
      73 -> 80         0.51198
      73 -> 81        -0.25489
 
 Excited State  35:      Singlet-A      6.7926 eV  182.53 nm  f=0.0750  <S**2>=0.000
      67 -> 74         0.10843
      68 -> 74        -0.11885
      70 -> 77         0.12857
      71 -> 79        -0.31617
      72 -> 79         0.16292
      72 -> 80         0.50649
      72 -> 81        -0.10732
 
 Excited State  36:      Singlet-A      6.8302 eV  181.52 nm  f=0.1951  <S**2>=0.000
      68 -> 76         0.48408
      70 -> 78        -0.19141
      71 -> 79        -0.39764
      72 -> 80        -0.16669
 
 Excited State  37:      Singlet-A      6.8978 eV  179.74 nm  f=0.0056  <S**2>=0.000
      64 -> 75        -0.10346
      67 -> 76         0.13956
      68 -> 76         0.12097
      69 -> 77         0.40123
      70 -> 78        -0.36085
      71 -> 79         0.29199
      72 -> 80         0.21094
 
 Excited State  38:      Singlet-A      6.9236 eV  179.07 nm  f=0.0001  <S**2>=0.000
      64 -> 74        -0.11026
      67 -> 75        -0.12077
      71 -> 82         0.13360
      73 -> 80         0.18007
      73 -> 81         0.60871
 
 Excited State  39:      Singlet-A      6.9979 eV  177.17 nm  f=0.0025  <S**2>=0.000
      67 -> 76         0.12504
      71 -> 80        -0.16271
      71 -> 81         0.21318
      72 -> 81         0.30292
      72 -> 83        -0.13446
      73 -> 82         0.51991
 
 Excited State  40:      Singlet-A      7.0426 eV  176.05 nm  f=0.0346  <S**2>=0.000
      63 -> 75         0.32293
      64 -> 74         0.35776
      66 -> 76        -0.31635
      67 -> 77        -0.10121
      68 -> 77        -0.19512
      70 -> 79        -0.10943
      73 -> 81         0.11808
      73 -> 83        -0.15562
 
 Excited State  41:      Singlet-A      7.0554 eV  175.73 nm  f=0.0121  <S**2>=0.000
      62 -> 75         0.22403
      63 -> 74        -0.21659
      64 -> 75        -0.22744
      65 -> 76        -0.19171
      69 -> 77         0.14919
      70 -> 78         0.18581
      71 -> 80         0.13991
      72 -> 81         0.39030
      73 -> 82        -0.17840
 
 Excited State  42:      Singlet-A      7.0691 eV  175.39 nm  f=0.0257  <S**2>=0.000
      62 -> 75        -0.22351
      63 -> 74         0.12147
      64 -> 75         0.22705
      65 -> 76         0.19178
      67 -> 76         0.44809
      72 -> 81         0.23739
      72 -> 83         0.12426
      73 -> 82        -0.16674
 
 Excited State  43:      Singlet-A      7.0764 eV  175.21 nm  f=0.0299  <S**2>=0.000
      62 -> 75         0.14940
      63 -> 74        -0.15094
      64 -> 75        -0.13655
      65 -> 76        -0.11482
      67 -> 76         0.40245
      70 -> 78         0.25754
      71 -> 80        -0.14950
      72 -> 80        -0.10564
      72 -> 81        -0.34866
 
 Excited State  44:      Singlet-A      7.1018 eV  174.58 nm  f=0.0013  <S**2>=0.000
      63 -> 75        -0.26738
      64 -> 74         0.36366
      66 -> 76         0.20389
      68 -> 77        -0.25463
      69 -> 76        -0.10113
      73 -> 83         0.34676
 
 Excited State  45:      Singlet-A      7.1043 eV  174.52 nm  f=0.0028  <S**2>=0.000
      63 -> 75         0.25502
      64 -> 74        -0.14745
      66 -> 76        -0.22866
      72 -> 82        -0.12222
      73 -> 83         0.55057
 
 Excited State  46:      Singlet-A      7.1497 eV  173.41 nm  f=0.0196  <S**2>=0.000
      62 -> 75         0.18963
      63 -> 74         0.55477
      64 -> 75        -0.19529
      65 -> 76        -0.17236
      66 -> 77        -0.16898
      71 -> 80        -0.10814
 
 Excited State  47:      Singlet-A      7.1989 eV  172.23 nm  f=0.0473  <S**2>=0.000
      63 -> 74         0.14357
      69 -> 77         0.37289
      70 -> 78         0.24771
      71 -> 80         0.41096
      72 -> 81        -0.13370
      73 -> 82         0.17762
 
 Excited State  48:      Singlet-A      7.2038 eV  172.11 nm  f=0.0003  <S**2>=0.000
      62 -> 74         0.53116
      64 -> 74        -0.14472
      65 -> 77        -0.14037
      67 -> 77        -0.13199
      68 -> 77        -0.25129
      70 -> 79        -0.24724
 
 Excited State  49:      Singlet-A      7.2067 eV  172.04 nm  f=0.0019  <S**2>=0.000
      69 -> 77        -0.10270
      72 -> 83         0.63011
      73 -> 82         0.17974
      73 -> 84         0.10679
 
 Excited State  50:      Singlet-A      7.2600 eV  170.78 nm  f=0.0232  <S**2>=0.000
      62 -> 75         0.35249
      64 -> 75         0.42101
      65 -> 76        -0.22754
      67 -> 76         0.13591
      69 -> 77        -0.10287
      70 -> 78        -0.16964
      71 -> 80         0.16896
 SavETr:  write IOETrn=   770 NScale= 10 NData=  16 NLR=1 NState=   50 LETran=     910.

 **********************************************************************

            Population analysis using the SCF density.

 **********************************************************************

 Orbital symmetries:
       Occupied  (A) (A) (A) (A) (A) (A) (A) (A) (A) (A) (A) (A)
                 (A) (A) (A) (A) (A) (A) (A) (A) (A) (A) (A) (A)
                 (A) (A) (A) (A) (A) (A) (A) (A) (A) (A) (A) (A)
                 (A) (A) (A) (A) (A) (A) (A) (A) (A) (A) (A) (A)
                 (A) (A) (A) (A) (A) (A) (A) (A) (A) (A) (A) (A)
                 (A) (A) (A) (A) (A) (A) (A) (A) (A) (A) (A) (A)
                 (A)
       Virtual   (A) (A) (A) (A) (A) (A) (A) (A) (A) (A) (A) (A)
                 (A) (A) (A) (A) (A) (A) (A) (A) (A) (A) (A) (A)
                 (A) (A) (A) (A) (A) (A) (A) (A) (A) (A) (A) (A)
                 (A) (A) (A) (A) (A) (A) (A) (A) (A) (A) (A) (A)
                 (A) (A) (A) (A) (A) (A) (A) (A) (A) (A) (A) (A)
                 (A) (A) (A) (A) (A) (A) (A) (A) (A) (A) (A) (A)
                 (A) (A) (A) (A) (A) (A) (A) (A) (A) (A) (A) (A)
                 (A) (A) (A) (A) (A) (A) (A) (A) (A) (A) (A) (A)
                 (A) (A) (A) (A) (A) (A) (A) (A) (A) (A) (A) (A)
                 (A) (A) (A) (A) (A) (A) (A) (A) (A) (A) (A) (A)
                 (A) (A) (A) (A) (A) (A) (A) (A) (A) (A) (A) (A)
                 (A) (A) (A) (A) (A) (A) (A) (A) (A) (A) (A) (A)
                 (A) (A) (A) (A) (A) (A) (A) (A) (A) (A) (A) (A)
                 (A) (A) (A) (A) (A) (A) (A) (A) (A) (A) (A) (A)
                 (A) (A) (A) (A) (A) (A) (A) (A) (A) (A) (A) (A)
                 (A) (A) (A) (A) (A) (A) (A) (A) (A) (A) (A) (A)
                 (A) (A) (A) (A) (A) (A) (A) (A) (A) (A) (A) (A)
                 (A) (A) (A) (A) (A) (A) (A) (A) (A) (A) (A) (A)
                 (A) (A) (A) (A) (A) (A) (A) (A) (A) (A) (A) (A)
                 (A) (A) (A) (A) (A) (A) (A) (A) (A) (A) (A) (A)
                 (A) (A) (A) (A) (A) (A) (A) (A) (A) (A) (A) (A)
                 (A) (A) (A) (A) (A) (A) (A) (A) (A) (A) (A) (A)
                 (A) (A) (A) (A) (A) (A) (A) (A) (A) (A) (A) (A)
                 (A) (A) (A) (A) (A) (A) (A) (A) (A) (A) (A) (A)
                 (A) (A) (A) (A) (A) (A) (A) (A) (A) (A) (A) (A)
                 (A) (A) (A) (A) (A) (A) (A) (A) (A) (A) (A) (A)
                 (A) (A) (A) (A) (A) (A) (A) (A) (A) (A) (A) (A)
                 (A) (A) (A) (A) (A) (A) (A) (A) (A) (A) (A) (A)
                 (A) (A) (A) (A) (A) (A) (A) (A) (A) (A) (A) (A)
                 (A) (A) (A) (A) (A) (A) (A) (A) (A) (A) (A) (A)
                 (A) (A) (A) (A) (A)
 The electronic state is 1-A.
 Alpha  occ. eigenvalues --  -10.25095 -10.25053 -10.24584 -10.24584 -10.24381
 Alpha  occ. eigenvalues --  -10.24380 -10.24151 -10.24151 -10.23204 -10.23158
 Alpha  occ. eigenvalues --  -10.23158 -10.23129 -10.23077 -10.23077 -10.22955
 Alpha  occ. eigenvalues --  -10.22955 -10.22860 -10.22860 -10.22806 -10.22806
 Alpha  occ. eigenvalues --  -10.22738 -10.22738  -0.92955  -0.90699  -0.88479
 Alpha  occ. eigenvalues --   -0.85609  -0.83067  -0.81823  -0.79216  -0.77821
 Alpha  occ. eigenvalues --   -0.76649  -0.74939  -0.74105  -0.66788  -0.66379
 Alpha  occ. eigenvalues --   -0.64072  -0.63605  -0.63525  -0.60229  -0.57611
 Alpha  occ. eigenvalues --   -0.55398  -0.54911  -0.52353  -0.52016  -0.51294
 Alpha  occ. eigenvalues --   -0.48655  -0.48332  -0.47117  -0.45265  -0.45235
 Alpha  occ. eigenvalues --   -0.45136  -0.44451  -0.43849  -0.43463  -0.42366
 Alpha  occ. eigenvalues --   -0.41722  -0.41370  -0.40423  -0.38599  -0.38275
 Alpha  occ. eigenvalues --   -0.38123  -0.36505  -0.36071  -0.35243  -0.34292
 Alpha  occ. eigenvalues --   -0.33847  -0.31825  -0.30751  -0.29626  -0.27114
 Alpha  occ. eigenvalues --   -0.24785  -0.22918  -0.22423
 Alpha virt. eigenvalues --   -0.05707  -0.05580  -0.02898  -0.00744   0.01658
 Alpha virt. eigenvalues --    0.03179   0.04809   0.06100   0.06703   0.06815
 Alpha virt. eigenvalues --    0.07958   0.08718   0.09593   0.09982   0.10436
 Alpha virt. eigenvalues --    0.11594   0.12211   0.12787   0.13191   0.14547
 Alpha virt. eigenvalues --    0.15264   0.16159   0.17783   0.18334   0.20098
 Alpha virt. eigenvalues --    0.20902   0.23587   0.24756   0.25262   0.25595
 Alpha virt. eigenvalues --    0.26394   0.26821   0.28786   0.28866   0.29235
 Alpha virt. eigenvalues --    0.29343   0.30003   0.31084   0.31447   0.32237
 Alpha virt. eigenvalues --    0.34187   0.34414   0.35409   0.37485   0.38062
 Alpha virt. eigenvalues --    0.38109   0.38858   0.38957   0.39325   0.39337
 Alpha virt. eigenvalues --    0.40019   0.40184   0.40889   0.41519   0.41779
 Alpha virt. eigenvalues --    0.42502   0.43239   0.43587   0.43802   0.44293
 Alpha virt. eigenvalues --    0.44781   0.44921   0.45257   0.45415   0.46926
 Alpha virt. eigenvalues --    0.46933   0.47368   0.47848   0.48331   0.48644
 Alpha virt. eigenvalues --    0.48910   0.49440   0.50243   0.50457   0.52184
 Alpha virt. eigenvalues --    0.53112   0.53610   0.53886   0.53928   0.54536
 Alpha virt. eigenvalues --    0.55032   0.55189   0.56261   0.57918   0.59342
 Alpha virt. eigenvalues --    0.59798   0.60342   0.61976   0.62406   0.62479
 Alpha virt. eigenvalues --    0.62908   0.63594   0.64023   0.64211   0.64939
 Alpha virt. eigenvalues --    0.65670   0.66768   0.67235   0.68231   0.68725
 Alpha virt. eigenvalues --    0.69384   0.69420   0.70700   0.70936   0.71988
 Alpha virt. eigenvalues --    0.73954   0.74797   0.75330   0.75762   0.76877
 Alpha virt. eigenvalues --    0.77120   0.77517   0.77813   0.79137   0.79897
 Alpha virt. eigenvalues --    0.81425   0.82394   0.82600   0.82909   0.83208
 Alpha virt. eigenvalues --    0.84329   0.85398   0.85528   0.86332   0.87772
 Alpha virt. eigenvalues --    0.88355   0.88656   0.88802   0.90351   0.90940
 Alpha virt. eigenvalues --    0.91262   0.93448   0.93884   0.94121   0.95586
 Alpha virt. eigenvalues --    0.97619   0.98510   0.99724   0.99940   1.00765
 Alpha virt. eigenvalues --    1.01686   1.02237   1.03606   1.06408   1.07587
 Alpha virt. eigenvalues --    1.07850   1.08328   1.08552   1.10497   1.11870
 Alpha virt. eigenvalues --    1.12820   1.15481   1.16798   1.17006   1.19000
 Alpha virt. eigenvalues --    1.19310   1.19857   1.21934   1.22341   1.22979
 Alpha virt. eigenvalues --    1.24430   1.24784   1.26000   1.28489   1.28666
 Alpha virt. eigenvalues --    1.31392   1.31475   1.32429   1.34594   1.35414
 Alpha virt. eigenvalues --    1.35610   1.37835   1.39591   1.42856   1.43125
 Alpha virt. eigenvalues --    1.44910   1.45020   1.47081   1.47845   1.48469
 Alpha virt. eigenvalues --    1.49056   1.49785   1.50348   1.51399   1.53027
 Alpha virt. eigenvalues --    1.53542   1.56095   1.56499   1.58703   1.58744
 Alpha virt. eigenvalues --    1.61208   1.64446   1.65043   1.66972   1.67493
 Alpha virt. eigenvalues --    1.69161   1.71019   1.72807   1.73126   1.77043
 Alpha virt. eigenvalues --    1.77725   1.78412   1.80079   1.80536   1.80631
 Alpha virt. eigenvalues --    1.83341   1.83684   1.84324   1.84863   1.85604
 Alpha virt. eigenvalues --    1.86593   1.87415   1.88798   1.89343   1.90270
 Alpha virt. eigenvalues --    1.91509   1.92324   1.94021   1.94182   1.95460
 Alpha virt. eigenvalues --    1.96544   1.96874   1.98821   1.98841   2.00028
 Alpha virt. eigenvalues --    2.01095   2.02399   2.02860   2.04517   2.06130
 Alpha virt. eigenvalues --    2.07020   2.08058   2.12736   2.14301   2.18458
 Alpha virt. eigenvalues --    2.19140   2.20065   2.23195   2.23329   2.24898
 Alpha virt. eigenvalues --    2.27529   2.28196   2.29629   2.30655   2.31997
 Alpha virt. eigenvalues --    2.34167   2.34381   2.35626   2.37167   2.37716
 Alpha virt. eigenvalues --    2.39653   2.40687   2.41853   2.42012   2.43173
 Alpha virt. eigenvalues --    2.43731   2.44138   2.44948   2.50044   2.54904
 Alpha virt. eigenvalues --    2.57338   2.57909   2.58854   2.59436   2.60711
 Alpha virt. eigenvalues --    2.61687   2.62980   2.64494   2.65449   2.69639
 Alpha virt. eigenvalues --    2.72107   2.72885   2.75202   2.75858   2.77139
 Alpha virt. eigenvalues --    2.77904   2.79242   2.79331   2.81552   2.81718
 Alpha virt. eigenvalues --    2.84847   2.86580   2.89811   2.90248   2.92758
 Alpha virt. eigenvalues --    2.93476   2.95751   2.97609   2.99597   3.03701
 Alpha virt. eigenvalues --    3.07395   3.10034   3.12384   3.12773   3.19218
[...]
    28  H    0.000046   0.000125   0.006240   0.000001   0.006919  -0.000405
    29  H    0.000013  -0.000377   0.006544  -0.000000  -0.000004  -0.000018
    30  H   -0.000001   0.000032  -0.000018   0.000000   0.000001   0.006544
    31  H   -0.000001   0.000015  -0.000405   0.000000  -0.000000   0.006240
    32  H    0.000000  -0.000002   0.000037   0.000000   0.000000  -0.000227
    33  H   -0.003186   0.001107  -0.002242  -0.001698   0.000279  -0.009029
    34  H   -0.000001  -0.000001   0.000011  -0.000000   0.000000  -0.000412
    35  H    0.000191   0.000033  -0.000020   0.000134   0.000004  -0.000414
    36  H    0.000007   0.000000  -0.000001   0.000000  -0.000000   0.000022
               7          8          9         10         11         12
     1  C    0.008809  -0.051253  -0.046374  -0.000188   0.009846   0.000710
     2  C   -0.051639  -0.039110  -0.045785   0.012354  -0.054498  -0.013062
     3  C    0.498646   0.000174   0.011125  -0.037669  -0.039336  -0.081887
     4  C   -0.000284   0.471762  -0.048415   0.000004  -0.000042   0.000073
     5  C   -0.047754  -0.036459   0.475347  -0.000276   0.440684   0.000924
     6  C   -0.037676   0.000028  -0.000226   0.498645  -0.000773   0.427976
     7  C    4.931737   0.000051   0.000366  -0.053694  -0.037298   0.012355
     8  C    0.000051   4.995995   0.538402  -0.000000   0.006563  -0.000002
     9  C    0.000366   0.538402   5.056191  -0.000001  -0.070336  -0.000023
    10  C   -0.053694  -0.000000  -0.000001   4.931744   0.000103  -0.051639
    11  C   -0.037298   0.006563  -0.070336   0.000103   5.030310   0.000014
    12  C    0.012355  -0.000002  -0.000023  -0.051639   0.000014   5.076827
    13  C    0.431440  -0.000324   0.005651  -0.000058   0.575025  -0.000075
    14  C    0.442730   0.000000  -0.000012  -0.032069   0.006959  -0.001063
    15  C   -0.032072   0.000000   0.000001   0.442727  -0.000429   0.014656
    16  C   -0.000276  -0.000000  -0.000001  -0.047759   0.000001   0.486771
    17  C   -0.000058  -0.000000  -0.000000   0.431432   0.000001  -0.048592
    18  C    0.000103   0.000000  -0.000000  -0.037298  -0.000000  -0.054497
    19  C   -0.000188   0.000261  -0.000075   0.008808  -0.000029   0.466917
    20  C   -0.000001  -0.000000   0.000000   0.000366  -0.000000  -0.045782
    21  C    0.000004  -0.000014   0.000002  -0.000284  -0.000001  -0.033165
    22  C   -0.000000   0.000000  -0.000000   0.000051   0.000000  -0.039115
    23  H   -0.000109   0.006359  -0.000523  -0.000065  -0.000258   0.001106
    24  H    0.000006  -0.047043   0.006928  -0.000001   0.000031   0.000033
    25  H    0.000002   0.408346  -0.046839   0.000000  -0.000392   0.000000
    26  H    0.000035  -0.042949   0.401752  -0.000000  -0.004489  -0.000001
    27  H    0.007302   0.000414  -0.003366  -0.000000   0.403994  -0.000002
    28  H   -0.052626   0.000007  -0.000450  -0.000003  -0.042462   0.000015
    29  H   -0.053078   0.000000  -0.000002   0.007131   0.000631   0.000032
    30  H    0.007131  -0.000000   0.000000  -0.053078   0.000006  -0.000377
    31  H   -0.000003   0.000000   0.000000  -0.052626   0.000000   0.000125
    32  H   -0.000000  -0.000000   0.000000   0.007303  -0.000000   0.007179
    33  H   -0.000065   0.000200   0.000057  -0.000109   0.000043  -0.048241
    34  H   -0.000000   0.000000   0.000000   0.000035   0.000000   0.006964
    35  H   -0.000001  -0.000003  -0.000004   0.000006  -0.000000   0.006765
    36  H    0.000000  -0.000000  -0.000000   0.000002  -0.000000  -0.000482
              13         14         15         16         17         18
     1  C   -0.000392  -0.000195  -0.000014   0.000869   0.000008  -0.000029
     2  C   -0.048586   0.014655  -0.001064   0.000924  -0.000075   0.000014
     3  C   -0.046452  -0.047022  -0.049853   0.012503   0.013785  -0.000773
     4  C    0.000081  -0.000003  -0.000000  -0.000043  -0.000001  -0.000001
     5  C   -0.033817   0.000088   0.000088  -0.000000  -0.000003   0.000001
     6  C    0.013784  -0.049851  -0.047024  -0.035387  -0.046452  -0.039338
     7  C    0.431440   0.442730  -0.032072  -0.000276  -0.000058   0.000103
     8  C   -0.000324   0.000000   0.000000  -0.000000  -0.000000   0.000000
     9  C    0.005651  -0.000012   0.000001  -0.000001  -0.000000  -0.000000
    10  C   -0.000058  -0.032069   0.442727  -0.047759   0.431432  -0.037298
    11  C    0.575025   0.006959  -0.000429   0.000001   0.000001  -0.000000
    12  C   -0.000075  -0.001063   0.014656   0.486771  -0.048592  -0.054497
    13  C    5.048774  -0.072048   0.006960  -0.000003  -0.000015   0.000001
    14  C   -0.072048   5.044779   0.561895   0.000088   0.006960  -0.000429
    15  C    0.006960   0.561895   5.044765   0.000087  -0.072048   0.006959
    16  C   -0.000003   0.000088   0.000087   4.881357  -0.033808   0.440677
    17  C   -0.000015   0.006960  -0.072048  -0.033808   5.048778   0.575037
    18  C    0.000001  -0.000429   0.006959   0.440677   0.575037   5.030297
    19  C    0.000008  -0.000014  -0.000195  -0.064746  -0.000392   0.009847
    20  C   -0.000000   0.000001  -0.000011   0.475360   0.005649  -0.070333
    21  C   -0.000001  -0.000000  -0.000003  -0.040298   0.000081  -0.000042
    22  C   -0.000000   0.000000   0.000000  -0.036459  -0.000324   0.006562
    23  H    0.000002   0.000002   0.000022   0.000279  -0.000053   0.000043
    24  H    0.000000  -0.000000  -0.000000   0.000004   0.000000  -0.000000
    25  H    0.000004   0.000000  -0.000000  -0.000000   0.000000  -0.000000
    26  H    0.000574  -0.000001   0.000000   0.000000   0.000000   0.000000
    27  H   -0.043605  -0.000423   0.000007   0.000000   0.000000  -0.000000
    28  H    0.403128  -0.003940   0.000646  -0.000000  -0.000001   0.000000
    29  H   -0.003616   0.404379  -0.043339   0.000001  -0.000433   0.000006
    30  H   -0.000433  -0.043338   0.404378  -0.000004  -0.003616   0.000631
    31  H   -0.000001   0.000645  -0.003940   0.006919   0.403128  -0.042463
    32  H    0.000000   0.000007  -0.000423  -0.052917  -0.043607   0.403993
    33  H   -0.000053   0.000022   0.000002   0.005801   0.000002  -0.000258
    34  H    0.000000   0.000000  -0.000001  -0.051010   0.000573  -0.004488
    35  H    0.000000  -0.000000  -0.000000  -0.000186   0.000000   0.000031
    36  H    0.000000  -0.000000   0.000000   0.007394   0.000004  -0.000392
              19         20         21         22         23         24
     1  C   -0.035131  -0.000075  -0.000646   0.000261   0.402539  -0.044123
     2  C    0.000708  -0.000023   0.000074  -0.000002  -0.048241   0.006765
     3  C   -0.026444  -0.000226   0.000560   0.000028  -0.009024  -0.000414
     4  C   -0.000643   0.000002   0.000252  -0.000014  -0.038134   0.406379
     5  C    0.000868  -0.000001  -0.000043  -0.000000   0.005799  -0.000186
     6  C   -0.069863   0.011125   0.007277   0.000175  -0.002246  -0.000020
     7  C   -0.000188  -0.000001   0.000004  -0.000000  -0.000109   0.000006
     8  C    0.000261  -0.000000  -0.000014   0.000000   0.006359  -0.047043
     9  C   -0.000075   0.000000   0.000002  -0.000000  -0.000523   0.006928
    10  C    0.008808   0.000366  -0.000284   0.000051  -0.000065  -0.000001
    11  C   -0.000029  -0.000000  -0.000001   0.000000  -0.000258   0.000031
    12  C    0.466917  -0.045782  -0.033165  -0.039115   0.001106   0.000033
    13  C    0.000008  -0.000000  -0.000001  -0.000000   0.000002   0.000000
    14  C   -0.000014   0.000001  -0.000000   0.000000   0.000002  -0.000000
    15  C   -0.000195  -0.000011  -0.000003   0.000000   0.000022  -0.000000
    16  C   -0.064746   0.475360  -0.040298  -0.036459   0.000279   0.000004
    17  C   -0.000392   0.005649   0.000081  -0.000324  -0.000053   0.000000
    18  C    0.009847  -0.070333  -0.000042   0.006562   0.000043  -0.000000
    19  C    5.137325  -0.046374   0.536177  -0.051252  -0.003192   0.000192
    20  C   -0.046374   5.056178  -0.048413   0.538391   0.000057  -0.000004
    21  C    0.536177  -0.048413   4.995802   0.471774  -0.001699   0.000134
    22  C   -0.051252   0.538391   0.471774   4.996004   0.000201  -0.000003
    23  H   -0.003192   0.000057  -0.001699   0.000201   0.437974  -0.006782
    24  H    0.000192  -0.000004   0.000134  -0.000003  -0.006782   0.466876
    25  H    0.000007  -0.000000   0.000000  -0.000000  -0.000290  -0.005940
    26  H   -0.000001   0.000000  -0.000000   0.000000   0.000071  -0.000305
    27  H    0.000000   0.000000   0.000000  -0.000000   0.000015  -0.000002
    28  H   -0.000001   0.000000   0.000000   0.000000  -0.000002   0.000000
    29  H   -0.000001   0.000000   0.000000  -0.000000   0.000000   0.000000
    30  H    0.000013  -0.000002  -0.000000   0.000000  -0.000001  -0.000000
    31  H    0.000046  -0.000450   0.000001   0.000007  -0.000001  -0.000000
    32  H   -0.000373  -0.003366   0.000024   0.000414  -0.000001   0.000000
    33  H    0.402547  -0.000523  -0.038137   0.006360   0.000828  -0.000042
    34  H   -0.000477   0.401752   0.006744  -0.042949   0.000002  -0.000000
    35  H   -0.044122   0.006927   0.406380  -0.047043  -0.000042   0.000005
    36  H    0.007419  -0.046839  -0.047589   0.408345   0.000005  -0.000000
              25         26         27         28         29         30
     1  C    0.007419  -0.000477  -0.000373   0.000046   0.000013  -0.000001
     2  C   -0.000482   0.006964   0.007178   0.000125  -0.000377   0.000032
     3  C    0.000022  -0.000412  -0.000227   0.006240   0.006544  -0.000018
     4  C   -0.047589   0.006744   0.000024   0.000001  -0.000000   0.000000
     5  C    0.007393  -0.051012  -0.052917   0.006919  -0.000004   0.000001
     6  C   -0.000001   0.000011   0.000037  -0.000405  -0.000018   0.006544
     7  C    0.000002   0.000035   0.007302  -0.052626  -0.053078   0.007131
     8  C    0.408346  -0.042949   0.000414   0.000007   0.000000  -0.000000
     9  C   -0.046839   0.401752  -0.003366  -0.000450  -0.000002   0.000000
    10  C    0.000000  -0.000000  -0.000000  -0.000003   0.007131  -0.053078
    11  C   -0.000392  -0.004489   0.403994  -0.042462   0.000631   0.000006
    12  C    0.000000  -0.000001  -0.000002   0.000015   0.000032  -0.000377
    13  C    0.000004   0.000574  -0.043605   0.403128  -0.003616  -0.000433
    14  C    0.000000  -0.000001  -0.000423  -0.003940   0.404379  -0.043338
    15  C   -0.000000   0.000000   0.000007   0.000646  -0.043339   0.404378
    16  C   -0.000000   0.000000   0.000000  -0.000000   0.000001  -0.000004
    17  C    0.000000   0.000000   0.000000  -0.000001  -0.000433  -0.003616
    18  C   -0.000000   0.000000  -0.000000   0.000000   0.000006   0.000631
    19  C    0.000007  -0.000001   0.000000  -0.000001  -0.000001   0.000013
    20  C   -0.000000   0.000000   0.000000   0.000000   0.000000  -0.000002
    21  C    0.000000  -0.000000   0.000000   0.000000   0.000000  -0.000000
    22  C   -0.000000   0.000000  -0.000000   0.000000  -0.000000   0.000000
    23  H   -0.000290   0.000071   0.000015  -0.000002   0.000000  -0.000001
    24  H   -0.005940  -0.000305  -0.000002   0.000000   0.000000  -0.000000
    25  H    0.467861  -0.006816  -0.000025  -0.000001  -0.000000  -0.000000
    26  H   -0.006816   0.468556   0.003945  -0.000030   0.000000  -0.000000
    27  H   -0.000025   0.003945   0.468154  -0.007157  -0.000031  -0.000001
    28  H   -0.000001  -0.000030  -0.007157   0.466518   0.003631  -0.000027
    29  H   -0.000000   0.000000  -0.000031   0.003631   0.465955  -0.006750
    30  H   -0.000000  -0.000000  -0.000001  -0.000027  -0.006750   0.465952
    31  H    0.000000  -0.000000  -0.000000  -0.000000  -0.000027   0.003631
    32  H   -0.000000   0.000000   0.000000  -0.000000  -0.000001  -0.000031
    33  H    0.000005   0.000002  -0.000001  -0.000001  -0.000001   0.000000
    34  H   -0.000000   0.000000   0.000000  -0.000000  -0.000000   0.000000
    35  H   -0.000000  -0.000000   0.000000  -0.000000  -0.000000   0.000000
    36  H   -0.000000  -0.000000  -0.000000   0.000000  -0.000000  -0.000000
              31         32         33         34         35         36
     1  C   -0.000001   0.000000  -0.003186  -0.000001   0.000191   0.000007
     2  C    0.000015  -0.000002   0.001107  -0.000001   0.000033   0.000000
     3  C   -0.000405   0.000037  -0.002242   0.000011  -0.000020  -0.000001
     4  C    0.000000   0.000000  -0.001698  -0.000000   0.000134   0.000000
     5  C   -0.000000   0.000000   0.000279   0.000000   0.000004  -0.000000
     6  C    0.006240  -0.000227  -0.009029  -0.000412  -0.000414   0.000022
     7  C   -0.000003  -0.000000  -0.000065  -0.000000  -0.000001   0.000000
     8  C    0.000000  -0.000000   0.000200   0.000000  -0.000003  -0.000000
     9  C    0.000000   0.000000   0.000057   0.000000  -0.000004  -0.000000
    10  C   -0.052626   0.007303  -0.000109   0.000035   0.000006   0.000002
    11  C    0.000000  -0.000000   0.000043   0.000000  -0.000000  -0.000000
    12  C    0.000125   0.007179  -0.048241   0.006964   0.006765  -0.000482
    13  C   -0.000001   0.000000  -0.000053   0.000000   0.000000   0.000000
    14  C    0.000645   0.000007   0.000022   0.000000  -0.000000  -0.000000
    15  C   -0.003940  -0.000423   0.000002  -0.000001  -0.000000   0.000000
    16  C    0.006919  -0.052917   0.005801  -0.051010  -0.000186   0.007394
    17  C    0.403128  -0.043607   0.000002   0.000573   0.000000   0.000004
    18  C   -0.042463   0.403993  -0.000258  -0.004488   0.000031  -0.000392
    19  C    0.000046  -0.000373   0.402547  -0.000477  -0.044122   0.007419
    20  C   -0.000450  -0.003366  -0.000523   0.401752   0.006927  -0.046839
    21  C    0.000001   0.000024  -0.038137   0.006744   0.406380  -0.047589
    22  C    0.000007   0.000414   0.006360  -0.042949  -0.047043   0.408345
    23  H   -0.000001  -0.000001   0.000828   0.000002  -0.000042   0.000005
    24  H   -0.000000   0.000000  -0.000042  -0.000000   0.000005  -0.000000
    25  H    0.000000  -0.000000   0.000005  -0.000000  -0.000000  -0.000000
    26  H   -0.000000   0.000000   0.000002   0.000000  -0.000000  -0.000000
    27  H   -0.000000   0.000000  -0.000001   0.000000   0.000000  -0.000000
    28  H   -0.000000  -0.000000  -0.000001  -0.000000  -0.000000   0.000000
    29  H   -0.000027  -0.000001  -0.000001  -0.000000  -0.000000  -0.000000
    30  H    0.003631  -0.000031   0.000000   0.000000   0.000000  -0.000000
    31  H    0.466520  -0.007159  -0.000002  -0.000030   0.000000  -0.000001
    32  H   -0.007159   0.468159   0.000015   0.003945  -0.000002  -0.000025
    33  H   -0.000002   0.000015   0.437974   0.000071  -0.006781  -0.000290
    34  H   -0.000030   0.003945   0.000071   0.468552  -0.000305  -0.006816
    35  H    0.000000  -0.000002  -0.006781  -0.000305   0.466873  -0.005941
    36  H   -0.000001  -0.000025  -0.000290  -0.006816  -0.005941   0.467865
 Mulliken charges:
               1
     1  C   -0.227629
     2  C   -0.091382
     3  C    0.037156
     4  C   -0.214972
     5  C    0.043847
     6  C    0.037218
     7  C    0.026105
     8  C   -0.211405
     9  C   -0.233389
    10  C    0.026106
    11  C   -0.223869
    12  C   -0.091437
    13  C   -0.235952
    14  C   -0.232801
    15  C   -0.232778
    16  C    0.043862
    17  C   -0.235961
    18  C   -0.223861
    19  C   -0.227631
    20  C   -0.233385
    21  C   -0.214952
    22  C   -0.211410
    23  H    0.255358
    24  H    0.217511
    25  H    0.217314
    26  H    0.217839
    27  H    0.217060
    28  H    0.219830
    29  H    0.219354
    30  H    0.219357
    31  H    0.219829
    32  H    0.217058
    33  H    0.255343
    34  H    0.217841
    35  H    0.217514
    36  H    0.217312
 Sum of Mulliken charges =  -0.00000
 Mulliken charges with hydrogens summed into heavy atoms:
               1
     1  C    0.027729
     2  C   -0.091382
     3  C    0.037156
     4  C    0.002539
     5  C    0.043847
     6  C    0.037218
     7  C    0.026105
     8  C    0.005909
     9  C   -0.015550
    10  C    0.026106
    11  C   -0.006809
    12  C   -0.091437
    13  C   -0.016122
    14  C   -0.013447
    15  C   -0.013421
    16  C    0.043862
    17  C   -0.016131
    18  C   -0.006803
    19  C    0.027712
    20  C   -0.015544
    21  C    0.002562
    22  C    0.005902
 Electronic spatial extent (au):  <R**2>=           5739.6807
 Charge=             -0.0000 electrons
 Dipole moment (field-independent basis, Debye):
    X=             -0.0002    Y=              0.0636    Z=              0.0002  Tot=              0.0636
 Quadrupole moment (field-independent basis, Debye-Ang):
   XX=           -106.6413   YY=           -107.2139   ZZ=           -131.7652
   XY=              0.0005   XZ=              5.9781   YZ=              0.0001
 Traceless Quadrupole moment (field-independent basis, Debye-Ang):
   XX=              8.5655   YY=              7.9929   ZZ=            -16.5584
   XY=              0.0005   XZ=              5.9781   YZ=              0.0001
 Octapole moment (field-independent basis, Debye-Ang**2):
  XXX=              0.0001  YYY=             15.3566  ZZZ=              0.0028  XYY=             -0.0022
  XXY=             -9.3589  XXZ=             -0.0019  XZZ=             -0.0011  YZZ=             -9.7310
  YYZ=              0.0008  XYZ=             20.7152
 Hexadecapole moment (field-independent basis, Debye-Ang**3):
 XXXX=          -4132.3040 YYYY=          -2592.5573 ZZZZ=           -469.5747 XXXY=              0.0060
 XXXZ=            144.9565 YYYX=              0.0010 YYYZ=              0.0112 ZZZX=              6.2456
 ZZZY=             -0.0067 XXYY=          -1103.7927 XXZZ=           -913.0531 YYZZ=           -560.5783
 XXYZ=              0.0036 YYXZ=            -10.1138 ZZXY=              0.0009
 N-N= 1.607871519418D+03 E-N=-5.180497986050D+03  KE= 8.427620670894D+02
 1\1\GINC-LOCALHOST\SP\RPBE1PBE TD-FC\6-311G(d)\C22H14\KIMARIYB\16-Jul-
 2023\0\\# TD(nstates=50) scrf(solvent=chloroform) pbe1pbe/6-311g*\\Tit
 le Card Required\\0,1\C,0,-1.139349,-1.497088,0.918775\C,0,-1.572082,-
 0.362797,0.19241\C,0,-0.720364,0.792666,-0.053169\C,0,-1.973226,-2.562
 358,1.150155\C,0,-2.936876,-0.312296,-0.184091\C,0,0.720366,0.79271,0.
 053006\C,0,-1.362311,2.016235,-0.322724\C,0,-3.293659,-2.551157,0.6701
 25\C,0,-3.766198,-1.43565,0.028535\C,0,1.362207,2.016295,0.322696\C,0,
 -3.488309,0.908076,-0.683586\C,0,1.572137,-0.362709,-0.192533\C,0,-2.7
 47319,2.038346,-0.681203\C,0,-0.647182,3.238171,-0.204592\C,0,0.647038
 ,3.238199,0.204543\C,0,2.936876,-0.312232,0.184208\C,0,2.747191,2.0384
 21,0.681326\C,0,3.488203,0.908174,0.683774\C,0,1.139509,-1.496931,-0.9
 19053\C,0,3.766192,-1.435585,-0.028281\C,0,1.973403,-2.562225,-1.1503\
 C,0,3.293717,-2.551057,-0.670014\H,0,-0.134926,-1.521768,1.319421\H,0,
 -1.610463,-3.412317,1.718391\H,0,-3.943245,-3.403186,0.840397\H,0,-4.8
 01228,-1.38668,-0.296834\H,0,-4.531157,0.927741,-0.98499\H,0,-3.189148
 ,2.989141,-0.963781\H,0,-1.172267,4.171035,-0.385375\H,0,1.172123,4.17
 1084,0.385217\H,0,3.189004,2.989225,0.963904\H,0,4.531048,0.927902,0.9
 85195\H,0,0.135142,-1.521554,-1.319824\H,0,4.801227,-1.386628,0.297072
 \H,0,1.61077,-3.412146,-1.718675\H,0,3.943329,-3.403096,-0.840167\\Ver
 sion=ES64L-G16RevA.03\State=1-A\HF=-845.9668239\RMSD=6.351e-09\PG=C01 
 [X(C22H14)]\\@


 THE TRULY SUCCESSFUL PERFORMANCE OF RESEARCHES IN
 INORGANIC CHEMISTRY IS POSSIBLE ONLY TO ONE WHO IS NOT
 ONLY A THEORETICAL CHEMIST, BUT ALSO AN ACCOMPLISHED
 ANALYST AND, MOREOVER, NOT MERELY A PRACTICALLY TRAINED,
 MECHANICAL WORKER, BUT A THINKING CREATIVE ARTIST.
   --  CLEMENS WINKLER, BER. 33, 1697(1900)
 Job cpu time:       0 days  3 hours 20 minutes 56.2 seconds.
 Elapsed time:       0 days  0 hours 20 minutes 23.2 seconds.
 File lengths (MBytes):  RWF=   4221 Int=      0 D2E=      0 Chk=    312 Scr=      1
 Normal termination of Gaussian 16 at Sun Jul 16 23:31:50 2023.
