 Default is to use a total of   8 processors:
                                8 via shared-memory
                                1 via Linda
 Entering Link 1 = d:\tools\G16W\l1.exe PID=     63928.
  
 Copyright (c) 1988,1990,1992,1993,1995,1998,2003,2009,2016,
            Gaussian, Inc.  All Rights Reserved.
  
 This is part of the Gaussian(R) 16 program.  It is based on
 the Gaussian(R) 09 system (copyright 2009, Gaussian, Inc.),
 the Gaussian(R) 03 system (copyright 2003, Gaussian, Inc.),
 the Gaussian(R) 98 system (copyright 1998, Gaussian, Inc.),
 the Gaussian(R) 94 system (copyright 1995, Gaussian, Inc.),
 the Gaussian 92(TM) system (copyright 1992, Gaussian, Inc.),
 the Gaussian 90(TM) system (copyright 1990, Gaussian, Inc.),
 the Gaussian 88(TM) system (copyright 1988, Gaussian, Inc.),
 the Gaussian 86(TM) system (copyright 1986, Carnegie Mellon
 University), and the Gaussian 82(TM) system (copyright 1983,
 Carnegie Mellon University). Gaussian is a federally registered
 trademark of Gaussian, Inc.
  
 This software contains proprietary and confidential information,
 including trade secrets, belonging to Gaussian, Inc.
  
 This software is provided under written license and may be
 used, copied, transmitted, or stored only in accord with that
 written license.
  
 The following legend is applicable only to US Government
 contracts under FAR:
  
                    RESTRICTED RIGHTS LEGEND
  
 Use, reproduction and disclosure by the US Government is
 subject to restrictions as set forth in subparagraphs (a)
 and (c) of the Commercial Computer Software - Restricted
 Rights clause in FAR 52.227-19.
  
 Gaussian, Inc.
 340 Quinnipiac St., Bldg. 40, Wallingford CT 06492
  
  
 ---------------------------------------------------------------
 Warning -- This program may not be used in any manner that
 competes with the business of Gaussian, Inc. or will provide
 assistance to any competitor of Gaussian, Inc.  The licensee
 of this program is prohibited from giving any competitor of
 Gaussian, Inc. access to this program.  By using this program,
 the user acknowledges that Gaussian, Inc. is engaged in the
 business of creating and licensing software in the field of
 computational chemistry and represents and warrants to the
 licensee that it is not a competitor of Gaussian, Inc. and that
 it will not use this program in any manner prohibited above.
 ---------------------------------------------------------------
  

 Cite this work as:
 Gaussian 16, Revision A.03,
 M. J. Frisch, G. W. Trucks, H. B. Schlegel, G. E. Scuseria, 
 M. A. Robb, J. R. Cheeseman, G. Scalmani, V. Barone, 
 G. A. Petersson, H. Nakatsuji, X. Li, M. Caricato, A. V. Marenich, 
 J. Bloino, B. G. Janesko, R. Gomperts, B. Mennucci, H. P. Hratchian, 
 J. V. Ortiz, A. F. Izmaylov, J. L. Sonnenberg, D. Williams-Young, 
 F. Ding, F. Lipparini, F. Egidi, J. Goings, B. Peng, A. Petrone, 
 T. Henderson, D. Ranasinghe, V. G. Zakrzewski, J. Gao, N. Rega, 
 G. Zheng, W. Liang, M. Hada, M. Ehara, K. Toyota, R. Fukuda, 
 J. Hasegawa, M. Ishida, T. Nakajima, Y. Honda, O. Kitao, H. Nakai, 
 T. Vreven, K. Throssell, J. A. Montgomery, Jr., J. E. Peralta, 
 F. Ogliaro, M. J. Bearpark, J. J. Heyd, E. N. Brothers, K. N. Kudin, 
 V. N. Staroverov, T. A. Keith, R. Kobayashi, J. Normand, 
 K. Raghavachari, A. P. Rendell, J. C. Burant, S. S. Iyengar, 
 J. Tomasi, M. Cossi, J. M. Millam, M. Klene, C. Adamo, R. Cammi, 
 J. W. Ochterski, R. L. Martin, K. Morokuma, O. Farkas, 
 J. B. Foresman, and D. J. Fox, Gaussian, Inc., Wallingford CT, 2016.
 
 ******************************************
 Gaussian 16:  EM64W-G16RevA.03 17-Dec-2016
                12-Jul-2023 
 ******************************************
 %mem=16000MB
 %nprocshared=8
 Will use up to    8 processors via shared memory.
 --------------------------------------------------
 # nmr revTPSSrevTPSS/gen scrf=(solvent=chloroform)
 --------------------------------------------------
 1/38=1,172=1/1;
 2/12=2,17=6,18=5,40=1/2;
 3/5=7,11=2,25=1,30=1,70=2201,72=7,74=4840/1,2,3,8;
 4//1;
 5/5=2,38=5,53=7/2;
 8/6=1,10=90,11=11/1;
 10/13=100,45=16/2;
 6/7=2,8=2,9=2,10=2,28=1/1;
 99/9=1/99;
 -------------------
 Title Card Required
 -------------------
 Symbolic Z-matrix:
 Charge =  0 Multiplicity = 1
 C                    -0.66842  -1.24154   0.74435 
 C                    -1.28286  -0.0005    0.11415 
 C                     1.28271  -0.00045   0.11528 
 C                     0.66777  -1.24149   0.74503 
 H                    -1.28871  -2.05648   1.10739 
 H                     1.28776  -2.05642   1.10857 
 C                    -0.66851   1.23591   0.75349 
 H                    -1.2888    2.04824   1.12232 
 C                     0.66764   1.23598   0.75404 
 H                     1.28769   2.04809   1.12375 
 H                     2.37464  -0.00046   0.1562 
 H                    -2.37484  -0.00077   0.154 
 C                     0.77613   0.00518  -1.37935 
 H                     1.17144   0.8899   -1.88949 
 H                     1.17137  -0.87571  -1.89611 
 C                    -0.77471   0.00513  -1.38013 
 H                    -1.16937   0.88994  -1.89057 
 H                    -1.16957  -0.8757   -1.89727 
 
                          Input orientation:                          
 ---------------------------------------------------------------------
 Center     Atomic      Atomic             Coordinates (Angstroms)
 Number     Number       Type             X           Y           Z
 ---------------------------------------------------------------------
      1          6           0       -0.668419   -1.241535    0.744350
      2          6           0       -1.282864   -0.000495    0.114154
      3          6           0        1.282707   -0.000451    0.115275
      4          6           0        0.667766   -1.241490    0.745028
      5          1           0       -1.288708   -2.056476    1.107391
      6          1           0        1.287763   -2.056422    1.108574
      7          6           0       -0.668512    1.235909    0.753493
      8          1           0       -1.288803    2.048235    1.122322
      9          6           0        0.667637    1.235984    0.754044
     10          1           0        1.287687    2.048089    1.123754
     11          1           0        2.374640   -0.000456    0.156195
     12          1           0       -2.374841   -0.000771    0.154003
     13          6           0        0.776126    0.005182   -1.379349
     14          1           0        1.171441    0.889897   -1.889493
     15          1           0        1.171368   -0.875708   -1.896112
     16          6           0       -0.774711    0.005125   -1.380128
     17          1           0       -1.169371    0.889939   -1.890565
     18          1           0       -1.169567   -0.875701   -1.897265
 ---------------------------------------------------------------------
                    Distance matrix (angstroms):
                    1          2          3          4          5
     1  C    0.000000
     2  C    1.521470   0.000000
     3  C    2.396439   2.565571   0.000000
     4  C    1.336185   2.396462   1.521486   0.000000
     5  H    1.086594   2.283333   3.438562   2.150186   0.000000
     6  H    2.150197   3.438580   2.283350   1.086589   2.576471
     7  C    2.477461   1.521472   2.396490   2.814821   3.368929
     8  H    3.369024   2.283360   3.438593   3.846141   4.104738
     9  C    2.814825   2.396413   1.521548   2.477490   3.846093
    10  H    3.846027   3.438564   2.283325   3.368837   4.846187
    11  H    3.338624   3.657746   1.092699   2.190961   4.307216
    12  H    2.190863   1.092704   3.657753   3.338585   2.512878
    13  C    2.855015   2.543624   1.578150   2.465545   3.833777
    14  H    3.855544   3.291050   2.196405   3.425960   4.869780
    15  H    3.238933   3.290961   2.196395   2.713491   4.057982
    16  C    2.465536   1.578331   2.543468   2.855009   3.271413
    17  H    3.425918   2.196509   3.290726   3.855439   4.205157
    18  H    2.713506   2.196504   3.290901   3.239029   3.230539
                    6          7          8          9         10
     6  H    0.000000
     7  C    3.846107   0.000000
     8  H    4.846348   1.086586   0.000000
     9  C    3.369004   1.336149   2.150125   0.000000
    10  H    4.104539   2.150220   2.576490   1.086583   0.000000
    11  H    2.513031   3.338583   4.307128   2.190905   2.512802
    12  H    4.307154   2.190964   2.513075   3.338605   4.307245
    13  C    3.271352   2.854940   3.833583   2.465362   3.271191
    14  H    4.205084   3.238908   4.057780   2.713279   3.230260
    15  H    3.230444   3.855450   4.869582   3.425831   4.204963
    16  C    3.833720   2.465450   3.271215   2.854833   3.833616
    17  H    4.869639   2.713226   3.230078   3.238565   4.057655
    18  H    4.058034   3.425853   4.204940   3.855382   4.869620
                   11         12         13         14         15
    11  H    0.000000
    12  H    4.749482   0.000000
    13  C    2.216568   3.504254   0.000000
    14  H    2.534809   4.188709   1.095099   0.000000
    15  H    2.534935   4.188566   1.095092   1.765617   0.000000
    16  C    3.504102   2.216756   1.550837   2.197676   2.197574
    17  H    4.188322   2.535110   2.197520   2.340812   2.931996
    18  H    4.188574   2.534934   2.197706   2.932186   2.340935
                   16         17         18
    16  C    0.000000
    17  H    1.095079   0.000000
    18  H    1.095078   1.765653   0.000000
 Stoichiometry    C8H10
 Framework group  C1[X(C8H10)]
 Deg. of freedom    48
 Full point group                 C1      NOp   1
 Largest Abelian subgroup         C1      NOp   1
 Largest concise Abelian subgroup C1      NOp   1
                         Standard orientation:                         
 ---------------------------------------------------------------------
 Center     Atomic      Atomic             Coordinates (Angstroms)
 Number     Number       Type             X           Y           Z
 ---------------------------------------------------------------------
      1          6           0       -0.668419    1.241535   -0.744350
      2          6           0       -1.282864    0.000495   -0.114154
      3          6           0        1.282707    0.000451   -0.115275
      4          6           0        0.667766    1.241490   -0.745028
      5          1           0       -1.288708    2.056476   -1.107391
      6          1           0        1.287763    2.056422   -1.108574
      7          6           0       -0.668512   -1.235909   -0.753493
      8          1           0       -1.288803   -2.048235   -1.122322
      9          6           0        0.667637   -1.235984   -0.754044
     10          1           0        1.287687   -2.048089   -1.123754
     11          1           0        2.374640    0.000456   -0.156195
     12          1           0       -2.374841    0.000771   -0.154003
     13          6           0        0.776126   -0.005182    1.379349
     14          1           0        1.171441   -0.889897    1.889493
     15          1           0        1.171368    0.875708    1.896112
     16          6           0       -0.774711   -0.005125    1.380128
     17          1           0       -1.169371   -0.889939    1.890565
     18          1           0       -1.169567    0.875701    1.897265
 ---------------------------------------------------------------------
 Rotational constants (GHZ):           2.7146133           2.6415263           2.6225684
 General basis read from cards:  (5D, 7F)
 There are   170 symmetry adapted cartesian basis functions of A   symmetry.
 There are   162 symmetry adapted basis functions of A   symmetry.
   162 basis functions,   278 primitive gaussians,   170 cartesian basis functions
    29 alpha electrons       29 beta electrons
       nuclear repulsion energy       368.5027006916 Hartrees.
 NAtoms=   18 NActive=   18 NUniq=   18 SFac= 1.00D+00 NAtFMM=   60 NAOKFM=F Big=F
 Integral buffers will be    131072 words long.
 Raffenetti 2 integral format.
 Two-electron integral symmetry is turned on.
 ------------------------------------------------------------------------------
 Polarizable Continuum Model (PCM)
 =================================
 Model                : PCM.
 Atomic radii         : UFF (Universal Force Field).
 Polarization charges : Total charges.
 Charge compensation  : None.
 Solution method      : On-the-fly selection.
 Cavity type          : Scaled VdW (van der Waals Surface) (Alpha=1.100).
 Cavity algorithm     : GePol (No added spheres)
                        Default sphere list used, NSphG=   18.
                        Lebedev-Laikov grids with approx.  5.0 points / Ang**2.
                        Smoothing algorithm: York/Karplus (Gamma=1.0000).
                        Polarization charges: spherical gaussians, with
                                              point-specific exponents (IZeta= 3).
                        Self-potential: point-specific (ISelfS= 7).
                        Self-field    : sphere-specific E.n sum rule (ISelfD= 2).
 Solvent              : Chloroform, Eps=   4.711300 Eps(inf)=   2.090627
 ------------------------------------------------------------------------------
 Spheres list:
 ISph  on   Nord     Re0    Alpha      Xe            Ye            Ze
    1   C      1    1.9255  1.100     -0.668419      1.241535     -0.744350
    2   C      2    1.9255  1.100     -1.282864      0.000495     -0.114154
    3   C      3    1.9255  1.100      1.282707      0.000451     -0.115275
    4   C      4    1.9255  1.100      0.667766      1.241490     -0.745028
    5   H      5    1.4430  1.100     -1.288708      2.056476     -1.107391
    6   H      6    1.4430  1.100      1.287763      2.056422     -1.108574
    7   C      7    1.9255  1.100     -0.668512     -1.235909     -0.753493
    8   H      8    1.4430  1.100     -1.288803     -2.048235     -1.122322
    9   C      9    1.9255  1.100      0.667637     -1.235984     -0.754044
   10   H     10    1.4430  1.100      1.287687     -2.048089     -1.123754
   11   H     11    1.4430  1.100      2.374640      0.000456     -0.156195
   12   H     12    1.4430  1.100     -2.374841      0.000771     -0.154003
   13   C     13    1.9255  1.100      0.776126     -0.005182      1.379349
   14   H     14    1.4430  1.100      1.171441     -0.889897      1.889493
   15   H     15    1.4430  1.100      1.171368      0.875708      1.896112
   16   C     16    1.9255  1.100     -0.774711     -0.005125      1.380128
   17   H     17    1.4430  1.100     -1.169371     -0.889939      1.890565
   18   H     18    1.4430  1.100     -1.169567      0.875701      1.897265
 ------------------------------------------------------------------------------
 One-electron integrals computed using PRISM.
 NBasis=   162 RedAO= T EigKep=  8.34D-04  NBF=   162
 NBsUse=   162 1.00D-06 EigRej= -1.00D+00 NBFU=   162
 ExpMin= 1.06D-01 ExpMax= 1.24D+03 ExpMxC= 1.87D+02 IAcc=3 IRadAn=         5 AccDes= 0.00D+00
 Harris functional with IExCor= 1009 and IRadAn=       5 diagonalized for initial guess.
 HarFok:  IExCor= 1009 AccDes= 0.00D+00 IRadAn=         5 IDoV= 1 UseB2=F ITyADJ=14
 ICtDFT=  3500011 ScaDFX=  1.000000  1.000000  1.000000  1.000000
 FoFCou: FMM=F IPFlag=           0 FMFlag=      100000 FMFlg1=           0
         NFxFlg=           0 DoJE=T BraDBF=F KetDBF=T FulRan=T
         wScrn=  0.000000 ICntrl=       500 IOpCl=  0 I1Cent=   200000004 NGrid=           0
         NMat0=    1 NMatS0=      1 NMatT0=    0 NMatD0=    1 NMtDS0=    0 NMtDT0=    0
 Petite list used in FoFCou.
 Requested convergence on RMS density matrix=1.00D-08 within 128 cycles.
 Requested convergence on MAX density matrix=1.00D-06.
 Requested convergence on             energy=1.00D-06.
 No special actions if energy rises.
 Inv3:  Mode=1 IEnd=     5443227.
 Iteration    1 A*A^-1 deviation from unit magnitude is 4.55D-15 for     83.
 Iteration    1 A*A^-1 deviation from orthogonality  is 3.12D-15 for   1134    395.
 Iteration    1 A^-1*A deviation from unit magnitude is 4.11D-15 for     83.
 Iteration    1 A^-1*A deviation from orthogonality  is 2.57D-15 for    896    331.
 Error on total polarization charges =  0.00920
 SCF Done:  E(RrevTPSS-revTPSS) =  -310.739132220     A.U. after   11 cycles
            NFock= 11  Conv=0.69D-08     -V/T= 2.0055
 DoSCS=F DFT=T ScalE2(SS,OS)=  1.000000  1.000000
 Range of M.O.s used for correlation:     1   162
 NBasis=   162 NAE=    29 NBE=    29 NFC=     0 NFV=     0
 NROrb=    162 NOA=    29 NOB=    29 NVA=   133 NVB=   133
 NEqPCM:  Using equilibrium solvation (IEInf=0, Eps=   4.7113, EpsInf=   2.0906)
          Differentiating once with respect to magnetic field using GIAOs.
          Electric field/nuclear overlap derivatives assumed to be zero.
 FoFJK:  IHMeth= 1 ICntrl=    6127 DoSepK=F KAlg= 0 I1Cent=           0 FoldK=F
 IRaf=         1 NMat=       1 IRICut=       1 DoRegI=T DoRafI=F ISym2E= 0 IDoP0=0 IntGTp=1.
          There are     3 degrees of freedom in the 1st order CPHF.  IDoFFX=0 NUNeed=     3.
      3 vectors produced by pass  0 Test12= 1.29D-13 3.33D-08 XBig12= 1.15D+01 1.71D+00.
 AX will form     3 AO Fock derivatives at one time.
 InvSVY:  IOpt=1 It=  1 EMax= 0.00D+00
 Solved reduced A of dimension     3 with     3 vectors.
 Calculating GIAO nuclear magnetic shielding tensors.
 SCF GIAO Magnetic shielding tensor (ppm):
      1  C    Isotropic =    57.7369   Anisotropy =   162.7510
   XX=    48.6868   YX=    13.1127   ZX=    -8.4622
   XY=    20.4081   YY=    -3.0123   ZY=    70.5963
   XZ=   -39.2214   YZ=    86.5465   ZZ=   127.5363
   Eigenvalues:   -46.6700    53.6431   166.2376
      2  C    Isotropic =   147.3627   Anisotropy =    30.3448
   XX=   124.0832   YX=     0.0302   ZX=    -5.3122
   XY=     0.0126   YY=   150.8160   ZY=    -0.0538
   XZ=    -3.0691   YZ=    -0.0554   ZZ=   167.1887
   Eigenvalues:   123.6796   150.8158   167.5925
      3  C    Isotropic =   147.3626   Anisotropy =    30.3354
   XX=   124.0884   YX=    -0.0221   ZX=     5.3515
   XY=    -0.0145   YY=   150.8251   ZY=    -0.0617
   XZ=     3.1121   YZ=    -0.0609   ZZ=   167.1743
   Eigenvalues:   123.6767   150.8249   167.5862
      4  C    Isotropic =    57.7370   Anisotropy =   162.7489
   XX=    48.7229   YX=   -13.0403   ZX=     8.5408
   XY=   -20.3407   YY=    -3.0029   ZY=    70.6193
   XZ=    39.2893   YZ=    86.5499   ZZ=   127.4911
   Eigenvalues:   -46.6632    53.6379   166.2363
      5  H    Isotropic =    25.3874   Anisotropy =     1.6598
   XX=    25.7791   YX=     0.1155   ZX=     0.2368
   XY=    -0.0089   YY=    25.9768   ZY=    -1.3835
   XZ=    -0.8045   YZ=    -0.5875   ZZ=    24.4063
   Eigenvalues:    23.9025    25.7658    26.4939
      6  H    Isotropic =    25.3874   Anisotropy =     1.6601
   XX=    25.7790   YX=    -0.1164   ZX=    -0.2383
   XY=     0.0078   YY=    25.9771   ZY=    -1.3839
   XZ=     0.8031   YZ=    -0.5870   ZZ=    24.4061
   Eigenvalues:    23.9028    25.7653    26.4941
      7  C    Isotropic =    57.7474   Anisotropy =   162.7411
   XX=    48.6927   YX=   -13.0519   ZX=    -8.5551
   XY=   -20.1187   YY=    -1.8440   ZY=   -71.5207
   XZ=   -39.3746   YZ=   -87.4894   ZZ=   126.3934
   Eigenvalues:   -46.6486    53.6493   166.2414
      8  H    Isotropic =    25.3879   Anisotropy =     1.6590
   XX=    25.7795   YX=    -0.1168   ZX=     0.2365
   XY=     0.0156   YY=    25.9626   ZY=     1.3960
   XZ=    -0.8038   YZ=     0.5978   ZZ=    24.4217
   Eigenvalues:    23.9033    25.7665    26.4940
      9  C    Isotropic =    57.7367   Anisotropy =   162.7412
   XX=    48.7138   YX=    12.9771   ZX=     8.6425
   XY=    20.0583   YY=    -1.8302   ZY=   -71.5660
   XZ=    39.4346   YZ=   -87.4910   ZZ=   126.3263
   Eigenvalues:   -46.6533    53.6324   166.2308
     10  H    Isotropic =    25.3878   Anisotropy =     1.6625
   XX=    25.7783   YX=     0.1192   ZX=    -0.2368
   XY=    -0.0135   YY=    25.9636   ZY=     1.3949
   XZ=     0.8031   YZ=     0.6007   ZZ=    24.4214
   Eigenvalues:    23.9029    25.7643    26.4961
     11  H    Isotropic =    28.3217   Anisotropy =     8.1895
   XX=    33.3347   YX=     0.0070   ZX=    -1.9991
   XY=     0.0058   YY=    26.0209   ZY=     0.0016
   XZ=    -1.8220   YZ=     0.0012   ZZ=    25.6094
   Eigenvalues:    25.1627    26.0209    33.7813
     12  H    Isotropic =    28.3213   Anisotropy =     8.1892
   XX=    33.3380   YX=    -0.0084   ZX=     1.9914
   XY=    -0.0075   YY=    26.0214   ZY=     0.0005
   XZ=     1.8142   YZ=     0.0006   ZZ=    25.6046
   Eigenvalues:    25.1618    26.0214    33.7808
     13  C    Isotropic =   162.0017   Anisotropy =    23.9739
   XX=   157.2752   YX=     0.0371   ZX=   -10.0938
   XY=    -0.0153   YY=   151.2942   ZY=    -0.1077
   XZ=     3.3550   YZ=    -0.1025   ZZ=   177.4357
   Eigenvalues:   151.2938   156.7270   177.9843
     14  H    Isotropic =    30.5970   Anisotropy =    11.2225
   XX=    29.5393   YX=    -2.2720   ZX=     1.9038
   XY=    -4.3781   YY=    30.0120   ZY=    -5.1872
   XZ=     3.3745   YZ=    -4.4224   ZZ=    32.2397
   Eigenvalues:    25.7581    27.9543    38.0787
     15  H    Isotropic =    30.5970   Anisotropy =    11.2224
   XX=    29.5395   YX=     2.2576   ZX=     1.9206
   XY=     4.3523   YY=    29.9402   ZY=     5.1706
   XZ=     3.4070   YZ=     4.4053   ZZ=    32.3113
   Eigenvalues:    25.7580    27.9544    38.0786
     16  C    Isotropic =   161.9850   Anisotropy =    24.0023
   XX=   157.2602   YX=    -0.0369   ZX=    10.1132
   XY=     0.0143   YY=   151.2628   ZY=    -0.0877
   XZ=    -3.3347   YZ=    -0.0833   ZZ=   177.4320
   Eigenvalues:   151.2625   156.7059   177.9865
     17  H    Isotropic =    30.5970   Anisotropy =    11.2207
   XX=    29.5350   YX=     2.2677   ZX=    -1.9005
   XY=     4.3720   YY=    30.0120   ZY=    -5.1916
   XZ=    -3.3709   YZ=    -4.4240   ZZ=    32.2441
   Eigenvalues:    25.7583    27.9553    38.0775
     18  H    Isotropic =    30.5969   Anisotropy =    11.2227
   XX=    29.5342   YX=    -2.2534   ZX=    -1.9175
   XY=    -4.3476   YY=    29.9387   ZY=     5.1738
   XZ=    -3.4045   YZ=     4.4083   ZZ=    32.3178
   Eigenvalues:    25.7571    27.9549    38.0787
 End of Minotr F.D. properties file   721 does not exist.
 End of Minotr F.D. properties file   722 does not exist.
 End of Minotr F.D. properties file   788 does not exist.

 **********************************************************************

            Population analysis using the SCF density.

 **********************************************************************

 Orbital symmetries:
       Occupied  (A) (A) (A) (A) (A) (A) (A) (A) (A) (A) (A) (A)
                 (A) (A) (A) (A) (A) (A) (A) (A) (A) (A) (A) (A)
                 (A) (A) (A) (A) (A)
       Virtual   (A) (A) (A) (A) (A) (A) (A) (A) (A) (A) (A) (A)
                 (A) (A) (A) (A) (A) (A) (A) (A) (A) (A) (A) (A)
                 (A) (A) (A) (A) (A) (A) (A) (A) (A) (A) (A) (A)
                 (A) (A) (A) (A) (A) (A) (A) (A) (A) (A) (A) (A)
                 (A) (A) (A) (A) (A) (A) (A) (A) (A) (A) (A) (A)
                 (A) (A) (A) (A) (A) (A) (A) (A) (A) (A) (A) (A)
                 (A) (A) (A) (A) (A) (A) (A) (A) (A) (A) (A) (A)
                 (A) (A) (A) (A) (A) (A) (A) (A) (A) (A) (A) (A)
                 (A) (A) (A) (A) (A) (A) (A) (A) (A) (A) (A) (A)
                 (A) (A) (A) (A) (A) (A) (A) (A) (A) (A) (A) (A)
                 (A) (A) (A) (A) (A) (A) (A) (A) (A) (A) (A) (A)
                 (A)
 The electronic state is 1-A.
 Alpha  occ. eigenvalues --  -10.02291 -10.02289 -10.01580 -10.01571 -10.00564
 Alpha  occ. eigenvalues --  -10.00563 -10.00497 -10.00496  -0.81490  -0.69365
 Alpha  occ. eigenvalues --   -0.69161  -0.68703  -0.55385  -0.54880  -0.52560
 Alpha  occ. eigenvalues --   -0.48287  -0.43335  -0.42871  -0.38975  -0.38828
 Alpha  occ. eigenvalues --   -0.35337  -0.34811  -0.34468  -0.33837  -0.29257
 Alpha  occ. eigenvalues --   -0.28458  -0.26675  -0.22958  -0.21027
 Alpha virt. eigenvalues --   -0.02787   0.00729   0.03627   0.07383   0.07678
 Alpha virt. eigenvalues --    0.07705   0.08461   0.10323   0.11342   0.11625
 Alpha virt. eigenvalues --    0.13403   0.14511   0.15884   0.17661   0.17784
 Alpha virt. eigenvalues --    0.20262   0.22562   0.26369   0.30930   0.34862
 Alpha virt. eigenvalues --    0.35158   0.35576   0.37593   0.39085   0.40066
 Alpha virt. eigenvalues --    0.41381   0.44979   0.49298   0.49428   0.50473
 Alpha virt. eigenvalues --    0.50970   0.51911   0.53458   0.55904   0.56420
 Alpha virt. eigenvalues --    0.56630   0.58320   0.58433   0.59157   0.60793
 Alpha virt. eigenvalues --    0.61881   0.62339   0.64181   0.65055   0.66318
 Alpha virt. eigenvalues --    0.68184   0.69921   0.72464   0.74649   0.75216
 Alpha virt. eigenvalues --    0.75291   0.81426   0.86363   0.95329   0.96267
 Alpha virt. eigenvalues --    0.98905   1.00144   1.05358   1.09380   1.18657
 Alpha virt. eigenvalues --    1.33438   1.34216   1.34965   1.43530   1.48376
 Alpha virt. eigenvalues --    1.49986   1.53792   1.54342   1.56051   1.57530
 Alpha virt. eigenvalues --    1.62674   1.62739   1.64123   1.75179   1.75693
 Alpha virt. eigenvalues --    1.76538   1.86221   1.87673   1.87976   1.88535
 Alpha virt. eigenvalues --    1.89732   1.91542   1.91659   1.92354   1.96475
 Alpha virt. eigenvalues --    1.98571   2.00174   2.02405   2.04278   2.13659
 Alpha virt. eigenvalues --    2.14245   2.15037   2.20786   2.22144   2.22785
 Alpha virt. eigenvalues --    2.24180   2.26153   2.26951   2.27860   2.31679
 Alpha virt. eigenvalues --    2.32116   2.33864   2.34620   2.36469   2.38294
 Alpha virt. eigenvalues --    2.42945   2.44533   2.47846   2.53493   2.54125
 Alpha virt. eigenvalues --    2.60059   2.60605   2.62573   2.66199   2.67052
 Alpha virt. eigenvalues --    2.71855   2.77344   2.78549   2.81136   2.89094
 Alpha virt. eigenvalues --    2.91743   3.05993   3.10904   3.12520   3.13939
 Alpha virt. eigenvalues --    3.17876   3.18196   3.24734   3.28365   3.31162
 Alpha virt. eigenvalues --    3.38547   3.53602   3.70486
          Condensed to atoms (all electrons):
               1          2          3          4          5          6
     1  C    5.156834   0.319663  -0.093278   0.519841   0.427710  -0.040354
     2  C    0.319663   5.280284  -0.042062  -0.093286  -0.038853   0.008434
     3  C   -0.093278  -0.042062   5.280274   0.319676   0.008434  -0.038855
     4  C    0.519841  -0.093286   0.319676   5.156754  -0.040354   0.427712
     5  H    0.427710  -0.038853   0.008434  -0.040354   0.581460  -0.009143
     6  H   -0.040354   0.008434  -0.038855   0.427712  -0.009143   0.581462
     7  C   -0.100944   0.319647  -0.093298  -0.015727   0.005875  -0.000134
     8  H    0.005876  -0.038853   0.008434  -0.000134  -0.000020   0.000076
     9  C   -0.015744  -0.093276   0.319714  -0.100952  -0.000134   0.005876
    10  H   -0.000134   0.008433  -0.038848   0.005876   0.000076  -0.000020
    11  H    0.010122  -0.000695   0.417279  -0.031047  -0.000267  -0.010628
    12  H   -0.031056   0.417285  -0.000696   0.010123  -0.010630  -0.000267
    13  C   -0.024193  -0.076959   0.384076  -0.109939  -0.000821   0.003017
    14  H    0.000574   0.002276  -0.027562   0.010624   0.000121  -0.000349
    15  H   -0.000559   0.002274  -0.027559  -0.006506  -0.000322   0.002352
    16  C   -0.109951   0.384098  -0.076964  -0.024204   0.003018  -0.000821
    17  H    0.010623  -0.027559   0.002276   0.000576  -0.000349   0.000121
    18  H   -0.006503  -0.027558   0.002274  -0.000558   0.002351  -0.000322
               7          8          9         10         11         12
     1  C   -0.100944   0.005876  -0.015744  -0.000134   0.010122  -0.031056
     2  C    0.319647  -0.038853  -0.093276   0.008433  -0.000695   0.417285
     3  C   -0.093298   0.008434   0.319714  -0.038848   0.417279  -0.000696
     4  C   -0.015727  -0.000134  -0.100952   0.005876  -0.031047   0.010123
     5  H    0.005875  -0.000020  -0.000134   0.000076  -0.000267  -0.010630
     6  H   -0.000134   0.000076   0.005876  -0.000020  -0.010628  -0.000267
     7  C    5.156802   0.427713   0.519813  -0.040354   0.010123  -0.031048
     8  H    0.427713   0.581464  -0.040359  -0.009143  -0.000267  -0.010627
     9  C    0.519813  -0.040359   5.156905   0.427715  -0.031047   0.010122
    10  H   -0.040354  -0.009143   0.427715   0.581460  -0.010631  -0.000267
    11  H    0.010123  -0.000267  -0.031047  -0.010631   0.587304   0.000125
    12  H   -0.031048  -0.010627   0.010122  -0.000267   0.000125   0.587282
    13  C   -0.024198  -0.000822  -0.109971   0.003020  -0.017904   0.009187
    14  H   -0.000563  -0.000323  -0.006507   0.002353  -0.005928  -0.000317
    15  H    0.000576   0.000121   0.010627  -0.000349  -0.005926  -0.000318
    16  C   -0.109965   0.003018  -0.024218  -0.000821   0.009193  -0.017886
    17  H   -0.006503   0.002353  -0.000563  -0.000323  -0.000318  -0.005924
    18  H    0.010623  -0.000349   0.000577   0.000121  -0.000318  -0.005925
              13         14         15         16         17         18
     1  C   -0.024193   0.000574  -0.000559  -0.109951   0.010623  -0.006503
     2  C   -0.076959   0.002276   0.002274   0.384098  -0.027559  -0.027558
     3  C    0.384076  -0.027562  -0.027559  -0.076964   0.002276   0.002274
     4  C   -0.109939   0.010624  -0.006506  -0.024204   0.000576  -0.000558
     5  H   -0.000821   0.000121  -0.000322   0.003018  -0.000349   0.002351
     6  H    0.003017  -0.000349   0.002352  -0.000821   0.000121  -0.000322
     7  C   -0.024198  -0.000563   0.000576  -0.109965  -0.006503   0.010623
     8  H   -0.000822  -0.000323   0.000121   0.003018   0.002353  -0.000349
     9  C   -0.109971  -0.006507   0.010627  -0.024218  -0.000563   0.000577
    10  H    0.003020   0.002353  -0.000349  -0.000821  -0.000323   0.000121
    11  H   -0.017904  -0.005928  -0.005926   0.009193  -0.000318  -0.000318
    12  H    0.009187  -0.000317  -0.000318  -0.017886  -0.005924  -0.005925
    13  C    4.906224   0.394154   0.394143   0.386279  -0.025913  -0.025890
    14  H    0.394154   0.595128  -0.031309  -0.025897  -0.013135   0.007005
    15  H    0.394143  -0.031309   0.595144  -0.025909   0.007009  -0.013131
    16  C    0.386279  -0.025897  -0.025909   4.906257   0.394144   0.394143
    17  H   -0.025913  -0.013135   0.007009   0.394144   0.595142  -0.031303
    18  H   -0.025890   0.007005  -0.013131   0.394143  -0.031303   0.595109
 Mulliken charges:
               1
     1  C   -0.028528
     2  C   -0.303295
     3  C   -0.303316
     4  C   -0.028475
     5  H    0.071846
     6  H    0.071844
     7  C   -0.028439
     8  H    0.071842
     9  C   -0.028578
    10  H    0.071835
    11  H    0.080833
    12  H    0.080837
    13  C   -0.063490
    14  H    0.099655
    15  H    0.099643
    16  C   -0.063514
    17  H    0.099646
    18  H    0.099654
 Sum of Mulliken charges =   0.00000
 Mulliken charges with hydrogens summed into heavy atoms:
               1
     1  C    0.043318
     2  C   -0.222458
     3  C   -0.222483
     4  C    0.043368
     7  C    0.043403
     9  C    0.043257
    13  C    0.135808
    16  C    0.135787
 Electronic spatial extent (au):  <R**2>=            728.6841
 Charge=              0.0000 electrons
 Dipole moment (field-independent basis, Debye):
    X=              0.0004    Y=             -0.0026    Z=              0.6773  Tot=              0.6773
 Quadrupole moment (field-independent basis, Debye-Ang):
   XX=            -45.6284   YY=            -48.4513   ZZ=            -51.6930
   XY=             -0.0006   XZ=             -0.0029   YZ=              0.0116
 Traceless Quadrupole moment (field-independent basis, Debye-Ang):
   XX=              2.9625   YY=              0.1396   ZZ=             -3.1021
   XY=             -0.0006   XZ=             -0.0029   YZ=              0.0116
 Octapole moment (field-independent basis, Debye-Ang**2):
  XXX=             -0.0028  YYY=              0.0432  ZZZ=              7.5584  XYY=             -0.0023
  XXY=              0.0076  XXZ=             -2.0239  XZZ=              0.0067  YZZ=             -0.0566
  YYZ=             -3.9208  XYZ=             -0.0001
 Hexadecapole moment (field-independent basis, Debye-Ang**3):
 XXXX=           -335.3790 YYYY=           -330.8544 ZZZZ=           -354.2246 XXXY=             -0.0045
 XXXZ=             -0.0093 YYYX=              0.0023 YYYZ=             -0.0442 ZZZX=             -0.0125
 ZZZY=              0.1455 XXYY=           -104.3099 XXZZ=           -114.1439 YYZZ=           -105.7143
 XXYZ=              0.0394 YYXZ=             -0.0035 ZZXY=             -0.0033
 N-N= 3.685027006916D+02 E-N=-1.456845964044D+03  KE= 3.090427293130D+02
 1|1|UNPC-KIMARIBOOK|SP|RrevTPSSrevTPSS|Gen|C8H10|KIMARIYB|12-Jul-2023|
 0||# nmr revTPSSrevTPSS/gen scrf=(solvent=chloroform)||Title Card Requ
 ired||0,1|C,0,-0.668419,-1.241535,0.74435|C,0,-1.282864,-0.000495,0.11
 4154|C,0,1.282707,-0.000451,0.115275|C,0,0.667766,-1.24149,0.745028|H,
 0,-1.288708,-2.056476,1.107391|H,0,1.287763,-2.056422,1.108574|C,0,-0.
 668512,1.235909,0.753493|H,0,-1.288803,2.048235,1.122322|C,0,0.667637,
 1.235984,0.754044|H,0,1.287687,2.048089,1.123754|H,0,2.37464,-0.000456
 ,0.156195|H,0,-2.374841,-0.000771,0.154003|C,0,0.776126,0.005182,-1.37
 9349|H,0,1.171441,0.889897,-1.889493|H,0,1.171368,-0.875708,-1.896112|
 C,0,-0.774711,0.005125,-1.380128|H,0,-1.169371,0.889939,-1.890565|H,0,
 -1.169567,-0.875701,-1.897265||Version=EM64W-G16RevA.03|State=1-A|HF=-
 310.7391322|RMSD=6.926e-009|Dipole=0.0001398,0.0010093,-0.2664646|Quad
 rupole=2.2025283,0.1037806,-2.3063089,0.0004639,0.0021579,0.0086237|PG
 =C01 [X(C8H10)]||@


 I take a simple view of life: keep your eyes open and get on with it.
 -- Laurence Olivier
 Job cpu time:       0 days  0 hours  1 minutes  0.0 seconds.
 Elapsed time:       0 days  0 hours  1 minutes  0.5 seconds.
 File lengths (MBytes):  RWF=     50 Int=      0 D2E=      0 Chk=      4 Scr=      1
 Normal termination of Gaussian 16 at Wed Jul 12 10:48:31 2023.
