 Default is to use a total of   8 processors:
                                8 via shared-memory
                                1 via Linda
 Entering Link 1 = d:\tools\G16W\l1.exe PID=     98424.
  
 Copyright (c) 1988,1990,1992,1993,1995,1998,2003,2009,2016,
            Gaussian, Inc.  All Rights Reserved.
  
 This is part of the Gaussian(R) 16 program.  It is based on
 the Gaussian(R) 09 system (copyright 2009, Gaussian, Inc.),
 the Gaussian(R) 03 system (copyright 2003, Gaussian, Inc.),
 the Gaussian(R) 98 system (copyright 1998, Gaussian, Inc.),
 the Gaussian(R) 94 system (copyright 1995, Gaussian, Inc.),
 the Gaussian 92(TM) system (copyright 1992, Gaussian, Inc.),
 the Gaussian 90(TM) system (copyright 1990, Gaussian, Inc.),
 the Gaussian 88(TM) system (copyright 1988, Gaussian, Inc.),
 the Gaussian 86(TM) system (copyright 1986, Carnegie Mellon
 University), and the Gaussian 82(TM) system (copyright 1983,
 Carnegie Mellon University). Gaussian is a federally registered
 trademark of Gaussian, Inc.
  
 This software contains proprietary and confidential information,
 including trade secrets, belonging to Gaussian, Inc.
  
 This software is provided under written license and may be
 used, copied, transmitted, or stored only in accord with that
 written license.
  
 The following legend is applicable only to US Government
 contracts under FAR:
  
                    RESTRICTED RIGHTS LEGEND
  
 Use, reproduction and disclosure by the US Government is
 subject to restrictions as set forth in subparagraphs (a)
 and (c) of the Commercial Computer Software - Restricted
 Rights clause in FAR 52.227-19.
  
 Gaussian, Inc.
 340 Quinnipiac St., Bldg. 40, Wallingford CT 06492
  
  
 ---------------------------------------------------------------
 Warning -- This program may not be used in any manner that
 competes with the business of Gaussian, Inc. or will provide
 assistance to any competitor of Gaussian, Inc.  The licensee
 of this program is prohibited from giving any competitor of
 Gaussian, Inc. access to this program.  By using this program,
 the user acknowledges that Gaussian, Inc. is engaged in the
 business of creating and licensing software in the field of
 computational chemistry and represents and warrants to the
 licensee that it is not a competitor of Gaussian, Inc. and that
 it will not use this program in any manner prohibited above.
 ---------------------------------------------------------------
  

 Cite this work as:
 Gaussian 16, Revision A.03,
 M. J. Frisch, G. W. Trucks, H. B. Schlegel, G. E. Scuseria, 
 M. A. Robb, J. R. Cheeseman, G. Scalmani, V. Barone, 
 G. A. Petersson, H. Nakatsuji, X. Li, M. Caricato, A. V. Marenich, 
 J. Bloino, B. G. Janesko, R. Gomperts, B. Mennucci, H. P. Hratchian, 
 J. V. Ortiz, A. F. Izmaylov, J. L. Sonnenberg, D. Williams-Young, 
 F. Ding, F. Lipparini, F. Egidi, J. Goings, B. Peng, A. Petrone, 
 T. Henderson, D. Ranasinghe, V. G. Zakrzewski, J. Gao, N. Rega, 
 G. Zheng, W. Liang, M. Hada, M. Ehara, K. Toyota, R. Fukuda, 
 J. Hasegawa, M. Ishida, T. Nakajima, Y. Honda, O. Kitao, H. Nakai, 
 T. Vreven, K. Throssell, J. A. Montgomery, Jr., J. E. Peralta, 
 F. Ogliaro, M. J. Bearpark, J. J. Heyd, E. N. Brothers, K. N. Kudin, 
 V. N. Staroverov, T. A. Keith, R. Kobayashi, J. Normand, 
 K. Raghavachari, A. P. Rendell, J. C. Burant, S. S. Iyengar, 
 J. Tomasi, M. Cossi, J. M. Millam, M. Klene, C. Adamo, R. Cammi, 
 J. W. Ochterski, R. L. Martin, K. Morokuma, O. Farkas, 
 J. B. Foresman, and D. J. Fox, Gaussian, Inc., Wallingford CT, 2016.
 
 ******************************************
 Gaussian 16:  EM64W-G16RevA.03 17-Dec-2016
                12-Jul-2023 
 ******************************************
 %mem=16000MB
 %nprocshared=8
 Will use up to    8 processors via shared memory.
 -----------------------------
 # opt freq=raman b3lyp/6-31g*
 -----------------------------
 1/18=20,19=15,26=3,38=1/1,3;
 2/9=110,12=2,17=6,18=5,40=1/2;
 3/5=1,6=6,7=1,11=2,25=1,30=1,71=1,74=-5/1,2,3;
 4//1;
 5/5=2,38=5/2;
 6/7=2,8=2,9=2,10=2,28=1/1;
 7//1,2,3,16;
 1/18=20,19=15,26=3/3(2);
 2/9=110/2;
 99//99;
 2/9=110/2;
 3/5=1,6=6,7=1,11=2,25=1,30=1,71=1,74=-5/1,2,3;
 4/5=5,16=3,69=1/1;
 5/5=2,38=5/2;
 7//1,2,3,16;
 1/18=20,19=15,26=3/3(-5);
 2/9=110/2;
 6/7=2,8=2,9=2,10=2,19=2,28=1/1;
 99/9=1/99;
 -------------------
 Title Card Required
 -------------------
 Symbolic Z-matrix:
 Charge =  0 Multiplicity = 1
 C                    -3.70907  -0.13781  -0.01993 
 C                    -2.30787  -0.12781  -0.04143 
 C                    -1.61518   1.08984  -0.00363 
 C                    -2.32369   2.29749   0.05568 
 C                    -3.72489   2.28749   0.07717 
 C                    -4.41758   1.06983   0.03937 
 H                    -4.23795  -1.06752  -0.0488 
 H                    -1.76691  -1.04988  -0.08671 
 H                    -0.54534   1.09748  -0.02004 
 H                    -4.26586   3.20955   0.12245 
 H                    -5.48743   1.0622    0.05578 
 N                    -1.5971    3.57475   0.09533 
 H                    -1.44706   3.902    -0.83762 
 H                    -2.13465   4.24843   0.60248 
 

 GradGradGradGradGradGradGradGradGradGradGradGradGradGradGradGradGradGrad
 Berny optimization.
 Initialization pass.
                           ----------------------------
                           !    Initial Parameters    !
                           ! (Angstroms and Degrees)  !
 --------------------------                            --------------------------
 ! Name  Definition              Value          Derivative Info.                !
 --------------------------------------------------------------------------------
 ! R1    R(1,2)                  1.4014         estimate D2E/DX2                !
 ! R2    R(1,6)                  1.4014         estimate D2E/DX2                !
 ! R3    R(1,7)                  1.07           estimate D2E/DX2                !
 ! R4    R(2,3)                  1.4014         estimate D2E/DX2                !
 ! R5    R(2,8)                  1.07           estimate D2E/DX2                !
 ! R6    R(3,4)                  1.4014         estimate D2E/DX2                !
 ! R7    R(3,9)                  1.07           estimate D2E/DX2                !
 ! R8    R(4,5)                  1.4014         estimate D2E/DX2                !
 ! R9    R(4,12)                 1.47           estimate D2E/DX2                !
 ! R10   R(5,6)                  1.4014         estimate D2E/DX2                !
 ! R11   R(5,10)                 1.07           estimate D2E/DX2                !
 ! R12   R(6,11)                 1.07           estimate D2E/DX2                !
 ! R13   R(12,13)                1.0            estimate D2E/DX2                !
 ! R14   R(12,14)                1.0            estimate D2E/DX2                !
 ! A1    A(2,1,6)              120.0            estimate D2E/DX2                !
 ! A2    A(2,1,7)              120.0            estimate D2E/DX2                !
 ! A3    A(6,1,7)              120.0            estimate D2E/DX2                !
 ! A4    A(1,2,3)              120.0            estimate D2E/DX2                !
 ! A5    A(1,2,8)              120.0            estimate D2E/DX2                !
 ! A6    A(3,2,8)              120.0            estimate D2E/DX2                !
 ! A7    A(2,3,4)              120.0            estimate D2E/DX2                !
 ! A8    A(2,3,9)              120.0            estimate D2E/DX2                !
 ! A9    A(4,3,9)              120.0            estimate D2E/DX2                !
 ! A10   A(3,4,5)              120.0            estimate D2E/DX2                !
 ! A11   A(3,4,12)             120.0            estimate D2E/DX2                !
 ! A12   A(5,4,12)             120.0            estimate D2E/DX2                !
 ! A13   A(4,5,6)              120.0            estimate D2E/DX2                !
 ! A14   A(4,5,10)             120.0            estimate D2E/DX2                !
 ! A15   A(6,5,10)             120.0            estimate D2E/DX2                !
 ! A16   A(1,6,5)              120.0            estimate D2E/DX2                !
 ! A17   A(1,6,11)             120.0            estimate D2E/DX2                !
 ! A18   A(5,6,11)             120.0            estimate D2E/DX2                !
 ! A19   A(4,12,13)            109.4712         estimate D2E/DX2                !
 ! A20   A(4,12,14)            109.4712         estimate D2E/DX2                !
 ! A21   A(13,12,14)           109.4712         estimate D2E/DX2                !
 ! D1    D(6,1,2,3)              0.0001         estimate D2E/DX2                !
 ! D2    D(6,1,2,8)           -180.0            estimate D2E/DX2                !
 ! D3    D(7,1,2,3)           -179.9998         estimate D2E/DX2                !
 ! D4    D(7,1,2,8)              0.0001         estimate D2E/DX2                !
 ! D5    D(2,1,6,5)             -0.0001         estimate D2E/DX2                !
 ! D6    D(2,1,6,11)          -180.0            estimate D2E/DX2                !
 ! D7    D(7,1,6,5)            179.9998         estimate D2E/DX2                !
 ! D8    D(7,1,6,11)             0.0            estimate D2E/DX2                !
 ! D9    D(1,2,3,4)              0.0            estimate D2E/DX2                !
 ! D10   D(1,2,3,9)            180.0            estimate D2E/DX2                !
 ! D11   D(8,2,3,4)           -179.9999         estimate D2E/DX2                !
 ! D12   D(8,2,3,9)              0.0            estimate D2E/DX2                !
 ! D13   D(2,3,4,5)             -0.0001         estimate D2E/DX2                !
 ! D14   D(2,3,4,12)           179.9999         estimate D2E/DX2                !
 ! D15   D(9,3,4,5)            179.9999         estimate D2E/DX2                !
 ! D16   D(9,3,4,12)            -0.0001         estimate D2E/DX2                !
 ! D17   D(3,4,5,6)              0.0001         estimate D2E/DX2                !
 ! D18   D(3,4,5,10)          -180.0            estimate D2E/DX2                !
 ! D19   D(12,4,5,6)          -179.9999         estimate D2E/DX2                !
 ! D20   D(12,4,5,10)            0.0            estimate D2E/DX2                !
 ! D21   D(3,4,12,13)           90.0            estimate D2E/DX2                !
 ! D22   D(3,4,12,14)         -150.0            estimate D2E/DX2                !
 ! D23   D(5,4,12,13)          -90.0            estimate D2E/DX2                !
 ! D24   D(5,4,12,14)           30.0            estimate D2E/DX2                !
 ! D25   D(4,5,6,1)              0.0            estimate D2E/DX2                !
 ! D26   D(4,5,6,11)           179.9999         estimate D2E/DX2                !
 ! D27   D(10,5,6,1)          -179.9999         estimate D2E/DX2                !
 ! D28   D(10,5,6,11)            0.0            estimate D2E/DX2                !
 --------------------------------------------------------------------------------
 Trust Radius=3.00D-01 FncErr=1.00D-07 GrdErr=1.00D-06 EigMax=2.50D+02 EigMin=1.00D-04
 Number of steps in this run=     73 maximum allowed number of steps=    100.
 GradGradGradGradGradGradGradGradGradGradGradGradGradGradGradGradGradGrad

                          Input orientation:                          
 ---------------------------------------------------------------------
 Center     Atomic      Atomic             Coordinates (Angstroms)
 Number     Number       Type             X           Y           Z
 ---------------------------------------------------------------------
      1          6           0       -3.709069   -0.137815   -0.019934
      2          6           0       -2.307870   -0.127811   -0.041434
      3          6           0       -1.615183    1.089841   -0.003629
      4          6           0       -2.323695    2.297490    0.055676
      5          6           0       -3.724894    2.287486    0.077173
      6          6           0       -4.417581    1.069834    0.039369
      7          1           0       -4.237951   -1.067520   -0.048796
      8          1           0       -1.766905   -1.049878   -0.086713
      9          1           0       -0.545336    1.097479   -0.020045
     10          1           0       -4.265859    3.209553    0.122454
     11          1           0       -5.487428    1.062196    0.055784
     12          7           0       -1.597100    3.574747    0.095334
     13          1           0       -1.447059    3.901996   -0.837616
     14          1           0       -2.134646    4.248430    0.602479
 ---------------------------------------------------------------------
                    Distance matrix (angstroms):
                    1          2          3          4          5
     1  C    0.000000
     2  C    1.401400   0.000000
     3  C    2.427296   1.401400   0.000000
     4  C    2.802800   2.427296   1.401400   0.000000
     5  C    2.427296   2.802800   2.427296   1.401400   0.000000
     6  C    1.401400   2.427296   2.802800   2.427296   1.401400
     7  H    1.070000   2.146700   3.396345   3.872800   3.396345
     8  H    2.146700   1.070000   2.146700   3.396345   3.872800
     9  H    3.396345   2.146700   1.070000   2.146700   3.396345
    10  H    3.396345   3.872800   3.396345   2.146700   1.070000
    11  H    2.146700   3.396345   3.872800   3.396345   2.146700
    12  N    4.272800   3.772644   2.486942   1.470000   2.486942
    13  H    4.701634   4.196933   2.938029   2.034920   2.938029
    14  H    4.701632   4.426750   3.257897   2.034920   2.578785
                    6          7          8          9         10
     6  C    0.000000
     7  H    2.146700   0.000000
     8  H    3.396345   2.471400   0.000000
     9  H    3.872800   4.280590   2.471400   0.000000
    10  H    2.146700   4.280590   4.942800   4.280590   0.000000
    11  H    1.070000   2.471400   4.280590   4.942800   2.471400
    12  N    3.772644   5.342800   4.631321   2.693766   2.693767
    13  H    4.196933   5.753903   5.018686   3.057261   3.057261
    14  H    3.953778   5.753900   5.355584   3.583564   2.419041
                   11         12         13         14
    11  H    0.000000
    12  N    4.631321   0.000000
    13  H    5.018686   1.000000   0.000000
    14  H    4.657479   1.000000   1.632993   0.000000
 Stoichiometry    C6H7N
 Framework group  C1[X(C6H7N)]
 Deg. of freedom    36
 Full point group                 C1      NOp   1
 Largest Abelian subgroup         C1      NOp   1
 Largest concise Abelian subgroup C1      NOp   1
                         Standard orientation:                         
 ---------------------------------------------------------------------
 Center     Atomic      Atomic             Coordinates (Angstroms)
 Number     Number       Type             X           Y           Z
 ---------------------------------------------------------------------
      1          6           0        1.881463    0.053127    0.012087
      2          6           0        1.226126   -1.185480   -0.005501
      3          6           0       -0.174230   -1.237128   -0.021615
      4          6           0       -0.919247   -0.050171   -0.020142
      5          6           0       -0.263910    1.188436   -0.002551
      6          6           0        1.136445    1.240084    0.013563
      7          1           0        2.950665    0.092562    0.024387
      8          1           0        1.794963   -2.091748   -0.006628
      9          1           0       -0.674594   -2.182832   -0.035045
     10          1           0       -0.832747    2.094704   -0.001426
     11          1           0        1.636810    2.185788    0.026992
     12          7           0       -2.388151   -0.104347   -0.037047
     13          1           0       -2.731798   -0.124432    0.901837
     14          1           0       -2.746122    0.703181   -0.505827
 ---------------------------------------------------------------------
 Rotational constants (GHZ):           5.5600287           2.5350333           1.7545505
 Standard basis: 6-31G(d) (6D, 7F)
 There are   119 symmetry adapted cartesian basis functions of A   symmetry.
 There are   119 symmetry adapted basis functions of A   symmetry.
   119 basis functions,   224 primitive gaussians,   119 cartesian basis functions
    25 alpha electrons       25 beta electrons
       nuclear repulsion energy       269.6283105323 Hartrees.
 NAtoms=   14 NActive=   14 NUniq=   14 SFac= 1.00D+00 NAtFMM=   60 NAOKFM=F Big=F
 Integral buffers will be    131072 words long.
 Raffenetti 2 integral format.
 Two-electron integral symmetry is turned on.
 One-electron integrals computed using PRISM.
 NBasis=   119 RedAO= T EigKep=  4.73D-04  NBF=   119
 NBsUse=   119 1.00D-06 EigRej= -1.00D+00 NBFU=   119
 ExpMin= 1.61D-01 ExpMax= 4.17D+03 ExpMxC= 6.27D+02 IAcc=3 IRadAn=         5 AccDes= 0.00D+00
 Harris functional with IExCor=  402 and IRadAn=       5 diagonalized for initial guess.
 HarFok:  IExCor=  402 AccDes= 0.00D+00 IRadAn=         5 IDoV= 1 UseB2=F ITyADJ=14
 ICtDFT=  3500011 ScaDFX=  1.000000  1.000000  1.000000  1.000000
 FoFCou: FMM=F IPFlag=           0 FMFlag=      100000 FMFlg1=           0
         NFxFlg=           0 DoJE=T BraDBF=F KetDBF=T FulRan=T
         wScrn=  0.000000 ICntrl=       500 IOpCl=  0 I1Cent=   200000004 NGrid=           0
         NMat0=    1 NMatS0=      1 NMatT0=    0 NMatD0=    1 NMtDS0=    0 NMtDT0=    0
 Petite list used in FoFCou.
 Requested convergence on RMS density matrix=1.00D-08 within 128 cycles.
 Requested convergence on MAX density matrix=1.00D-06.
 Requested convergence on             energy=1.00D-06.
 No special actions if energy rises.
 Integral accuracy reduced to 1.0D-05 until final iterations.
 Initial convergence to 1.0D-05 achieved.  Increase integral accuracy.
 SCF Done:  E(RB3LYP) =  -287.592133365     A.U. after   13 cycles
            NFock= 13  Conv=0.59D-08     -V/T= 2.0097

 **********************************************************************

            Population analysis using the SCF density.

 **********************************************************************

 Orbital symmetries:
       Occupied  (A) (A) (A) (A) (A) (A) (A) (A) (A) (A) (A) (A)
                 (A) (A) (A) (A) (A) (A) (A) (A) (A) (A) (A) (A)
                 (A)
       Virtual   (A) (A) (A) (A) (A) (A) (A) (A) (A) (A) (A) (A)
                 (A) (A) (A) (A) (A) (A) (A) (A) (A) (A) (A) (A)
                 (A) (A) (A) (A) (A) (A) (A) (A) (A) (A) (A) (A)
                 (A) (A) (A) (A) (A) (A) (A) (A) (A) (A) (A) (A)
                 (A) (A) (A) (A) (A) (A) (A) (A) (A) (A) (A) (A)
                 (A) (A) (A) (A) (A) (A) (A) (A) (A) (A) (A) (A)
                 (A) (A) (A) (A) (A) (A) (A) (A) (A) (A) (A) (A)
                 (A) (A) (A) (A) (A) (A) (A) (A) (A) (A)
 The electronic state is 1-A.
 Alpha  occ. eigenvalues --  -14.31934 -10.21831 -10.18625 -10.18539 -10.18333
 Alpha  occ. eigenvalues --  -10.18237 -10.18079  -0.89372  -0.82889  -0.74001
 Alpha  occ. eigenvalues --   -0.72040  -0.60411  -0.58834  -0.51467  -0.49161
 Alpha  occ. eigenvalues --   -0.46748  -0.43998  -0.42167  -0.41828  -0.35734
 Alpha  occ. eigenvalues --   -0.35077  -0.34446  -0.26767  -0.24502  -0.22202
 Alpha virt. eigenvalues --    0.00213   0.00789   0.09358   0.10155   0.14003
 Alpha virt. eigenvalues --    0.15522   0.16343   0.18225   0.19425   0.20065
 Alpha virt. eigenvalues --    0.24874   0.30770   0.30964   0.33905   0.34787
 Alpha virt. eigenvalues --    0.48352   0.52984   0.53861   0.55570   0.56356
 Alpha virt. eigenvalues --    0.59596   0.60256   0.60457   0.60726   0.62136
 Alpha virt. eigenvalues --    0.62907   0.64402   0.66645   0.67805   0.72842
 Alpha virt. eigenvalues --    0.76360   0.78930   0.84601   0.85297   0.85316
 Alpha virt. eigenvalues --    0.87365   0.88930   0.90832   0.93184   0.95059
 Alpha virt. eigenvalues --    0.95921   0.97166   1.00896   1.07974   1.11392
 Alpha virt. eigenvalues --    1.12518   1.18432   1.19266   1.25913   1.34338
 Alpha virt. eigenvalues --    1.40555   1.44799   1.45318   1.47386   1.49463
 Alpha virt. eigenvalues --    1.49825   1.51463   1.77945   1.79337   1.80295
 Alpha virt. eigenvalues --    1.90470   1.91019   1.91995   1.95997   1.99434
 Alpha virt. eigenvalues --    2.06028   2.07999   2.12141   2.14044   2.16078
 Alpha virt. eigenvalues --    2.21237   2.25295   2.30533   2.30877   2.37427
 Alpha virt. eigenvalues --    2.43924   2.48483   2.58121   2.59874   2.65570
 Alpha virt. eigenvalues --    2.72051   2.73035   2.73461   2.78939   2.88128
 Alpha virt. eigenvalues --    3.05937   3.41417   3.83117   4.08835   4.12127
 Alpha virt. eigenvalues --    4.13340   4.33467   4.36160   4.68985
          Condensed to atoms (all electrons):
               1          2          3          4          5          6
     1  C    4.862131   0.544905  -0.035649  -0.037921  -0.039028   0.551080
     2  C    0.544905   4.876733   0.525005  -0.018720  -0.040352  -0.026143
     3  C   -0.035649   0.525005   4.910472   0.567415  -0.058177  -0.040356
     4  C   -0.037921  -0.018720   0.567415   4.600180   0.535022  -0.011894
     5  C   -0.039028  -0.040352  -0.058177   0.535022   5.016467   0.493569
     6  C    0.551080  -0.026143  -0.040356  -0.011894   0.493569   4.890642
     7  H    0.360928  -0.044635   0.004682   0.000712   0.005004  -0.044550
     8  H   -0.044859   0.358753  -0.040589   0.004189   0.000724   0.004775
     9  H    0.005152  -0.046638   0.349925  -0.038941   0.006736   0.000101
    10  H    0.004995   0.000379   0.005777  -0.046337   0.351486  -0.043104
    11  H   -0.044232   0.004743   0.000745   0.003502  -0.037587   0.354577
    12  N    0.000407   0.003935  -0.050525   0.299851  -0.073765   0.006992
    13  H    0.000028  -0.000214  -0.004125  -0.032266   0.002414  -0.000033
    14  H   -0.000008  -0.000127   0.004363  -0.040423  -0.002139   0.000340
               7          8          9         10         11         12
     1  C    0.360928  -0.044859   0.005152   0.004995  -0.044232   0.000407
     2  C   -0.044635   0.358753  -0.046638   0.000379   0.004743   0.003935
     3  C    0.004682  -0.040589   0.349925   0.005777   0.000745  -0.050525
     4  C    0.000712   0.004189  -0.038941  -0.046337   0.003502   0.299851
     5  C    0.005004   0.000724   0.006736   0.351486  -0.037587  -0.073765
     6  C   -0.044550   0.004775   0.000101  -0.043104   0.354577   0.006992
     7  H    0.604246  -0.005717  -0.000179  -0.000190  -0.005720   0.000004
     8  H   -0.005717   0.599347  -0.006120   0.000017  -0.000204  -0.000113
     9  H   -0.000179  -0.006120   0.597076  -0.000183   0.000019  -0.000443
    10  H   -0.000190   0.000017  -0.000183   0.615872  -0.006053  -0.006305
    11  H   -0.005720  -0.000204   0.000019  -0.006053   0.602553  -0.000143
    12  N    0.000004  -0.000113  -0.000443  -0.006305  -0.000143   6.962694
    13  H    0.000000   0.000004   0.000284   0.000599   0.000002   0.315177
    14  H    0.000000   0.000004  -0.000167   0.005173  -0.000007   0.320627
              13         14
     1  C    0.000028  -0.000008
     2  C   -0.000214  -0.000127
     3  C   -0.004125   0.004363
     4  C   -0.032266  -0.040423
     5  C    0.002414  -0.002139
     6  C   -0.000033   0.000340
     7  H    0.000000   0.000000
     8  H    0.000004   0.000004
     9  H    0.000284  -0.000167
    10  H    0.000599   0.005173
    11  H    0.000002  -0.000007
    12  N    0.315177   0.320627
    13  H    0.430883  -0.031512
    14  H   -0.031512   0.433249
 Mulliken charges:
               1
     1  C   -0.127928
     2  C   -0.137625
     3  C   -0.138962
     4  C    0.215631
     5  C   -0.160373
     6  C   -0.135998
     7  H    0.125414
     8  H    0.129788
     9  H    0.133377
    10  H    0.117875
    11  H    0.127806
    12  N   -0.778392
    13  H    0.318759
    14  H    0.310628
 Sum of Mulliken charges =   0.00000
 Mulliken charges with hydrogens summed into heavy atoms:
               1
     1  C   -0.002514
     2  C   -0.007836
     3  C   -0.005585
     4  C    0.215631
     5  C   -0.042498
     6  C   -0.008191
    12  N   -0.149005
 Electronic spatial extent (au):  <R**2>=            693.5754
 Charge=              0.0000 electrons
 Dipole moment (field-independent basis, Debye):
    X=             -0.0829    Y=              1.0988    Z=              0.7709  Tot=              1.3448
 Quadrupole moment (field-independent basis, Debye-Ang):
   XX=            -37.2275   YY=            -37.4237   ZZ=            -43.1321
   XY=             -3.7375   XZ=             -2.2333   YZ=             -0.9925
 Traceless Quadrupole moment (field-independent basis, Debye-Ang):
   XX=              2.0336   YY=              1.8374   ZZ=             -3.8710
   XY=             -3.7375   XZ=             -2.2333   YZ=             -0.9925
 Octapole moment (field-independent basis, Debye-Ang**2):
  XXX=             -2.9855  YYY=              0.4497  ZZZ=              1.4336  XYY=              0.3522
  XXY=             10.8500  XXZ=              6.6764  XZZ=             -7.2375  YZZ=              0.2731
  YYZ=             -0.0919  XYZ=              2.8878
 Hexadecapole moment (field-independent basis, Debye-Ang**3):
 XXXX=           -533.7895 YYYY=           -277.2021 ZZZZ=            -47.1299 XXXY=            -32.6594
 XXXZ=            -18.8611 YYYX=             -3.6193 YYYZ=             -0.5449 ZZZX=             -4.1011
 ZZZY=             -1.0790 XXYY=           -137.7493 XXZZ=            -99.9229 YYZZ=            -62.8572
 XXYZ=             -7.6428 YYXZ=              0.2581 ZZXY=             -1.1816
 N-N= 2.696283105323D+02 E-N=-1.206047828603D+03  KE= 2.848379288746D+02
 Calling FoFJK, ICntrl=      2127 FMM=F ISym2X=0 I1Cent= 0 IOpClX= 0 NMat=1 NMatS=1 NMatT=0.
 ***** Axes restored to original set *****
 -------------------------------------------------------------------
 Center     Atomic                   Forces (Hartrees/Bohr)
 Number     Number              X              Y              Z
 -------------------------------------------------------------------
      1        6           0.006985707    0.012538121    0.000216872
      2        6          -0.010134261    0.016409668   -0.000394302
      3        6          -0.014247004   -0.002604438   -0.001182145
      4        6           0.006416721    0.019393532    0.000020045
      5        6           0.004552243   -0.020156871    0.000737751
      6        6           0.017270166   -0.000229352    0.001271471
      7        1          -0.006020675   -0.010371812   -0.000272606
      8        1           0.006420586   -0.010040453   -0.000345274
      9        1           0.011414547    0.002477844    0.000684403
     10        1          -0.005756468    0.011112069   -0.000044399
     11        1          -0.012131714    0.000140929    0.000165699
     12        7           0.000179396   -0.038240306    0.008724600
     13        1           0.003559136    0.007734903   -0.013144727
     14        1          -0.008508380    0.011836164    0.003562611
 -------------------------------------------------------------------
 Cartesian Forces:  Max     0.038240306 RMS     0.010544519

 GradGradGradGradGradGradGradGradGradGradGradGradGradGradGradGradGradGrad
 Berny optimization.
 FormGI is forming the generalized inverse of G from B-inverse, IUseBI=4.
 Internal  Forces:  Max     0.018602423 RMS     0.005353183
 Search for a local minimum.
 Step number   1 out of a maximum of   73
 All quantities printed in internal units (Hartrees-Bohrs-Radians)
 Mixed Optimization -- RFO/linear search
 Second derivative matrix not updated -- first step.
 ITU=  0
     Eigenvalues ---    0.00766   0.01669   0.02070   0.02070   0.02070
     Eigenvalues ---    0.02070   0.02070   0.02070   0.02070   0.02070
     Eigenvalues ---    0.05453   0.16000   0.16000   0.16000   0.16000
     Eigenvalues ---    0.16000   0.16000   0.16000   0.22000   0.22000
     Eigenvalues ---    0.23485   0.25000   0.35740   0.37230   0.37230
     Eigenvalues ---    0.37230   0.37230   0.37230   0.41268   0.41459
     Eigenvalues ---    0.45389   0.45389   0.45389   0.45389   0.47688
     Eigenvalues ---    0.47688
 RFO step:  Lambda=-5.80127239D-03 EMin= 7.65814613D-03
 Linear search not attempted -- first point.
 Iteration  1 RMS(Cart)=  0.04343579 RMS(Int)=  0.00247072
 Iteration  2 RMS(Cart)=  0.00256361 RMS(Int)=  0.00007466
 Iteration  3 RMS(Cart)=  0.00001014 RMS(Int)=  0.00007427
 Iteration  4 RMS(Cart)=  0.00000000 RMS(Int)=  0.00007427
 Variable       Old X    -DE/DX   Delta X   Delta X   Delta X     New X
                                 (Linear)    (Quad)   (Total)
    R1        2.64826  -0.00418   0.00000  -0.00926  -0.00926   2.63900
    R2        2.64826  -0.00496   0.00000  -0.01082  -0.01082   2.63744
    R3        2.02201   0.01200   0.00000   0.03172   0.03172   2.05373
    R4        2.64826  -0.00428   0.00000  -0.00944  -0.00944   2.63883
    R5        2.02201   0.01191   0.00000   0.03151   0.03151   2.05351
    R6        2.64826  -0.00505   0.00000  -0.01096  -0.01096   2.63730
    R7        2.02201   0.01142   0.00000   0.03020   0.03020   2.05221
    R8        2.64826  -0.00063   0.00000  -0.00122  -0.00122   2.64704
    R9        2.77790  -0.01860   0.00000  -0.05122  -0.05122   2.72668
   R10        2.64826  -0.00426   0.00000  -0.00913  -0.00914   2.63913
   R11        2.02201   0.01248   0.00000   0.03302   0.03302   2.05502
   R12        2.02201   0.01213   0.00000   0.03208   0.03208   2.05409
   R13        1.88973   0.01533   0.00000   0.03176   0.03176   1.92148
   R14        1.88973   0.01435   0.00000   0.02974   0.02974   1.91947
    A1        2.09440  -0.00144   0.00000  -0.00700  -0.00703   2.08737
    A2        2.09440   0.00083   0.00000   0.00414   0.00415   2.09854
    A3        2.09440   0.00062   0.00000   0.00286   0.00287   2.09726
    A4        2.09440   0.00184   0.00000   0.00732   0.00725   2.10165
    A5        2.09440  -0.00045   0.00000  -0.00086  -0.00090   2.09349
    A6        2.09440  -0.00138   0.00000  -0.00646  -0.00650   2.08789
    A7        2.09440   0.00050   0.00000   0.00179   0.00177   2.09617
    A8        2.09440   0.00221   0.00000   0.01392   0.01392   2.10832
    A9        2.09440  -0.00271   0.00000  -0.01571  -0.01571   2.07869
   A10        2.09440  -0.00242   0.00000  -0.00929  -0.00936   2.08503
   A11        2.09440  -0.00633   0.00000  -0.02483  -0.02487   2.06953
   A12        2.09440   0.00875   0.00000   0.03412   0.03407   2.12846
   A13        2.09440   0.00128   0.00000   0.00607   0.00604   2.10043
   A14        2.09440  -0.00130   0.00000  -0.00702  -0.00701   2.08739
   A15        2.09440   0.00002   0.00000   0.00095   0.00096   2.09536
   A16        2.09440   0.00025   0.00000   0.00111   0.00105   2.09545
   A17        2.09440   0.00010   0.00000   0.00082   0.00080   2.09520
   A18        2.09440  -0.00035   0.00000  -0.00193  -0.00195   2.09245
   A19        1.91063   0.00429   0.00000   0.02283   0.02284   1.93347
   A20        1.91063   0.00103   0.00000   0.00317   0.00318   1.91381
   A21        1.91063  -0.00352   0.00000  -0.02725  -0.02724   1.88340
    D1        0.00000   0.00019   0.00000   0.00707   0.00701   0.00701
    D2       -3.14159  -0.00030   0.00000  -0.01185  -0.01189   3.12971
    D3       -3.14159   0.00032   0.00000   0.01201   0.01197  -3.12962
    D4        0.00000  -0.00018   0.00000  -0.00690  -0.00693  -0.00693
    D5        0.00000   0.00034   0.00000   0.01324   0.01319   0.01319
    D6       -3.14159  -0.00005   0.00000  -0.00138  -0.00138   3.14021
    D7        3.14159   0.00022   0.00000   0.00830   0.00824  -3.13336
    D8        0.00000  -0.00017   0.00000  -0.00633  -0.00634  -0.00634
    D9        0.00000  -0.00054   0.00000  -0.02083  -0.02079  -0.02079
   D10        3.14159  -0.00066   0.00000  -0.02545  -0.02539   3.11620
   D11       -3.14159  -0.00004   0.00000  -0.00191  -0.00196   3.13964
   D12        0.00000  -0.00017   0.00000  -0.00654  -0.00656  -0.00656
   D13        0.00000   0.00034   0.00000   0.01428   0.01419   0.01419
   D14        3.14159  -0.00009   0.00000  -0.00509  -0.00478   3.13681
   D15        3.14159   0.00047   0.00000   0.01890   0.01872  -3.12288
   D16        0.00000   0.00003   0.00000  -0.00047  -0.00025  -0.00026
   D17        0.00000   0.00020   0.00000   0.00603   0.00599   0.00600
   D18       -3.14159   0.00007   0.00000   0.00147   0.00140  -3.14019
   D19       -3.14159   0.00063   0.00000   0.02540   0.02563  -3.11596
   D20        0.00000   0.00051   0.00000   0.02085   0.02104   0.02104
   D21        1.57080  -0.00096   0.00000  -0.10842  -0.10836   1.46243
   D22       -2.61799  -0.00202   0.00000  -0.12587  -0.12583  -2.74383
   D23       -1.57080  -0.00140   0.00000  -0.12779  -0.12783  -1.69863
   D24        0.52360  -0.00245   0.00000  -0.14525  -0.14530   0.37830
   D25        0.00000  -0.00054   0.00000  -0.01979  -0.01975  -0.01975
   D26        3.14159  -0.00015   0.00000  -0.00516  -0.00520   3.13639
   D27       -3.14159  -0.00041   0.00000  -0.01523  -0.01514   3.12646
   D28        0.00000  -0.00002   0.00000  -0.00061  -0.00058  -0.00059
         Item               Value     Threshold  Converged?
 Maximum Force            0.018602     0.000450     NO 
 RMS     Force            0.005353     0.000300     NO 
 Maximum Displacement     0.225863     0.001800     NO 
 RMS     Displacement     0.043843     0.001200     NO 
 Predicted change in Energy=-3.141674D-03
 GradGradGradGradGradGradGradGradGradGradGradGradGradGradGradGradGradGrad

                          Input orientation:                          
 ---------------------------------------------------------------------
 Center     Atomic      Atomic             Coordinates (Angstroms)
 Number     Number       Type             X           Y           Z
 ---------------------------------------------------------------------
      1          6           0       -3.709238   -0.135577   -0.024613
      2          6           0       -2.313482   -0.108256   -0.061063
      3          6           0       -1.628542    1.107435   -0.007167
      4          6           0       -2.337327    2.307846    0.058687
      5          6           0       -3.737520    2.280544    0.087437
      6          6           0       -4.420234    1.062588    0.057793
      7          1           0       -4.239067   -1.083962   -0.055516
      8          1           0       -1.753885   -1.038258   -0.114026
      9          1           0       -0.542908    1.134650   -0.011424
     10          1           0       -4.292048    3.214673    0.137419
     11          1           0       -5.506789    1.049889    0.085315
     12          7           0       -1.596302    3.544444    0.119173
     13          1           0       -1.327537    3.849888   -0.812687
     14          1           0       -2.175694    4.270124    0.530776
 ---------------------------------------------------------------------
                    Distance matrix (angstroms):
                    1          2          3          4          5
     1  C    0.000000
     2  C    1.396499   0.000000
     3  C    2.423774   1.396407   0.000000
     4  C    2.803461   2.419185   1.395600   0.000000
     5  C    2.418883   2.785014   2.415145   1.400755   0.000000
     6  C    1.395674   2.413173   2.792807   2.426761   1.396565
     7  H    1.086788   2.158683   3.408724   3.890247   3.404686
     8  H    2.155512   1.086673   2.152006   3.400978   3.871672
     9  H    3.411641   2.163842   1.085983   2.145051   3.395349
    10  H    3.404423   3.872464   3.399357   2.156263   1.087472
    11  H    2.156062   3.399991   3.879777   3.410082   2.155187
    12  N    4.245907   3.726802   2.440495   1.442897   2.486617
    13  H    4.709298   4.147762   2.874111   2.038838   3.013483
    14  H    4.697915   4.420347   3.254437   2.024728   2.567932
                    6          7          8          9         10
     6  C    0.000000
     7  H    2.157159   0.000000
     8  H    3.398896   2.486291   0.000000
     9  H    3.878613   4.311122   2.489683   0.000000
    10  H    2.157369   4.303288   4.959125   4.290070   0.000000
    11  H    1.086979   2.486015   4.299347   4.965548   2.482861
    12  N    3.760049   5.332623   4.591337   2.633212   2.715903
    13  H    4.253416   5.778684   4.956195   2.937717   3.177188
    14  H    3.943343   5.767796   5.364011   3.576474   2.397428
                   11         12         13         14
    11  H    0.000000
    12  N    4.638520   0.000000
    13  H    5.110044   1.016805   0.000000
    14  H    4.654518   1.015738   1.643429   0.000000
 Stoichiometry    C6H7N
 Framework group  C1[X(C6H7N)]
 Deg. of freedom    36
 Full point group                 C1      NOp   1
 Largest Abelian subgroup         C1      NOp   1
 Largest concise Abelian subgroup C1      NOp   1
                         Standard orientation:                         
 ---------------------------------------------------------------------
 Center     Atomic      Atomic             Coordinates (Angstroms)
 Number     Number       Type             X           Y           Z
 ---------------------------------------------------------------------
      1          6           0        1.878026    0.022800    0.013446
      2          6           0        1.192593   -1.193846    0.000653
      3          6           0       -0.203328   -1.218585   -0.026633
      4          6           0       -0.924886   -0.024037   -0.016239
      5          6           0       -0.237211    1.196123    0.004403
      6          6           0        1.159162    1.219086    0.007299
      7          1           0        2.964652    0.038712    0.023445
      8          1           0        1.746680   -2.128621   -0.005837
      9          1           0       -0.742197   -2.160838   -0.060389
     10          1           0       -0.797274    2.128236    0.013860
     11          1           0        1.685228    2.170219    0.018470
     12          7           0       -2.365945   -0.087879   -0.051247
     13          1           0       -2.743615   -0.228032    0.882356
     14          1           0       -2.737995    0.786230   -0.410741
 ---------------------------------------------------------------------
 Rotational constants (GHZ):           5.5977603           2.5589460           1.7684458
 Standard basis: 6-31G(d) (6D, 7F)
 There are   119 symmetry adapted cartesian basis functions of A   symmetry.
 There are   119 symmetry adapted basis functions of A   symmetry.
   119 basis functions,   224 primitive gaussians,   119 cartesian basis functions
    25 alpha electrons       25 beta electrons
       nuclear repulsion energy       270.2822156112 Hartrees.
 NAtoms=   14 NActive=   14 NUniq=   14 SFac= 1.00D+00 NAtFMM=   60 NAOKFM=F Big=F
 Integral buffers will be    131072 words long.
 Raffenetti 2 integral format.
 Two-electron integral symmetry is turned on.
 One-electron integrals computed using PRISM.
 NBasis=   119 RedAO= T EigKep=  4.62D-04  NBF=   119
 NBsUse=   119 1.00D-06 EigRej= -1.00D+00 NBFU=   119
 Initial guess from the checkpoint file:  "D:\tools\G16W\Scratch\Gau-98424.chk"
 B after Tr=     0.000000    0.000000    0.000000
         Rot=    0.999969   -0.002660    0.000081    0.007351 Ang=  -0.90 deg.
 ExpMin= 1.61D-01 ExpMax= 4.17D+03 ExpMxC= 6.27D+02 IAcc=2 IRadAn=         4 AccDes= 0.00D+00
 Harris functional with IExCor=  402 and IRadAn=       4 diagonalized for initial guess.
 HarFok:  IExCor=  402 AccDes= 0.00D+00 IRadAn=         4 IDoV= 1 UseB2=F ITyADJ=14
 ICtDFT=  3500011 ScaDFX=  1.000000  1.000000  1.000000  1.000000
 FoFCou: FMM=F IPFlag=           0 FMFlag=      100000 FMFlg1=           0
         NFxFlg=           0 DoJE=T BraDBF=F KetDBF=T FulRan=T
         wScrn=  0.000000 ICntrl=       500 IOpCl=  0 I1Cent=   200000004 NGrid=           0
         NMat0=    1 NMatS0=      1 NMatT0=    0 NMatD0=    1 NMtDS0=    0 NMtDT0=    0
 Petite list used in FoFCou.
 Requested convergence on RMS density matrix=1.00D-08 within 128 cycles.
 Requested convergence on MAX density matrix=1.00D-06.
 Requested convergence on             energy=1.00D-06.
 No special actions if energy rises.
 Integral accuracy reduced to 1.0D-05 until final iterations.
 Initial convergence to 1.0D-05 achieved.  Increase integral accuracy.
 SCF Done:  E(RB3LYP) =  -287.595827355     A.U. after   12 cycles
            NFock= 12  Conv=0.55D-08     -V/T= 2.0099
 Calling FoFJK, ICntrl=      2127 FMM=F ISym2X=0 I1Cent= 0 IOpClX= 0 NMat=1 NMatS=1 NMatT=0.
 ***** Axes restored to original set *****
 -------------------------------------------------------------------
 Center     Atomic                   Forces (Hartrees/Bohr)
 Number     Number              X              Y              Z
 -------------------------------------------------------------------
      1        6          -0.000364258   -0.000764478   -0.000001739
      2        6           0.000716063    0.000944021    0.000009595
      3        6          -0.000373360   -0.005126141   -0.002272179
      4        6           0.003562920    0.010431807    0.000061361
      5        6          -0.001047261   -0.002445035    0.001929904
      6        6           0.000943073    0.000652770    0.000080807
      7        1           0.000129727    0.000071122    0.000024335
      8        1           0.000202031   -0.000196563   -0.000093477
      9        1           0.000077945    0.000456625    0.000332137
     10        1          -0.000116214    0.000513766   -0.000219857
     11        1          -0.000040546    0.000348236    0.000116315
     12        7          -0.005490836   -0.008308124    0.002481999
     13        1           0.002270770    0.000722164   -0.000213141
     14        1          -0.000470055    0.002699829   -0.002236062
 -------------------------------------------------------------------
 Cartesian Forces:  Max     0.010431807 RMS     0.002635872

 GradGradGradGradGradGradGradGradGradGradGradGradGradGradGradGradGradGrad
 Berny optimization.
 Using GEDIIS/GDIIS optimizer.
 FormGI is forming the generalized inverse of G from B-inverse, IUseBI=4.
 Internal  Forces:  Max     0.006081471 RMS     0.001217916
 Search for a local minimum.
 Step number   2 out of a maximum of   73
 All quantities printed in internal units (Hartrees-Bohrs-Radians)
 Mixed Optimization -- RFO/linear search
 Update second derivatives using D2CorX and points    1    2
 DE= -3.69D-03 DEPred=-3.14D-03 R= 1.18D+00
 TightC=F SS=  1.41D+00  RLast= 2.88D-01 DXNew= 5.0454D-01 8.6465D-01
 Trust test= 1.18D+00 RLast= 2.88D-01 DXMaxT set to 5.05D-01
 ITU=  1  0
 Use linear search instead of GDIIS.
     Eigenvalues ---    0.00586   0.01668   0.02067   0.02070   0.02070
     Eigenvalues ---    0.02070   0.02070   0.02071   0.02071   0.02081
     Eigenvalues ---    0.05399   0.15232   0.15997   0.15998   0.16000
     Eigenvalues ---    0.16000   0.16000   0.16086   0.21954   0.22057
     Eigenvalues ---    0.23126   0.25242   0.32954   0.37223   0.37230
     Eigenvalues ---    0.37230   0.37230   0.39451   0.41240   0.41611
     Eigenvalues ---    0.45178   0.45389   0.45389   0.46162   0.47684
     Eigenvalues ---    0.51666
 RFO step:  Lambda=-2.23711932D-03 EMin= 5.86211117D-03
 Quartic linear search produced a step of  0.37705.
 Iteration  1 RMS(Cart)=  0.05971128 RMS(Int)=  0.02136894
 Iteration  2 RMS(Cart)=  0.02497595 RMS(Int)=  0.00096853
 Iteration  3 RMS(Cart)=  0.00095490 RMS(Int)=  0.00006484
 Iteration  4 RMS(Cart)=  0.00000118 RMS(Int)=  0.00006484
 Iteration  5 RMS(Cart)=  0.00000000 RMS(Int)=  0.00006484
 Variable       Old X    -DE/DX   Delta X   Delta X   Delta X     New X
                                 (Linear)    (Quad)   (Total)
    R1        2.63900   0.00004  -0.00349   0.00088  -0.00262   2.63638
    R2        2.63744   0.00049  -0.00408   0.00223  -0.00186   2.63558
    R3        2.05373  -0.00013   0.01196  -0.00352   0.00845   2.06218
    R4        2.63883  -0.00107  -0.00356  -0.00209  -0.00564   2.63318
    R5        2.05351   0.00028   0.01188  -0.00208   0.00980   2.06331
    R6        2.63730   0.00377  -0.00413   0.01214   0.00802   2.64532
    R7        2.05221   0.00009   0.01139  -0.00262   0.00877   2.06098
    R8        2.64704   0.00052  -0.00046   0.00176   0.00130   2.64835
    R9        2.72668  -0.00608  -0.01931  -0.01724  -0.03655   2.69012
   R10        2.63913  -0.00063  -0.00345  -0.00102  -0.00447   2.63466
   R11        2.05502   0.00049   0.01245  -0.00148   0.01097   2.06600
   R12        2.05409   0.00004   0.01210  -0.00297   0.00913   2.06322
   R13        1.92148   0.00101   0.01197  -0.00027   0.01170   1.93319
   R14        1.91947   0.00129   0.01121   0.00069   0.01190   1.93137
    A1        2.08737  -0.00025  -0.00265  -0.00173  -0.00441   2.08296
    A2        2.09854   0.00004   0.00156   0.00015   0.00172   2.10027
    A3        2.09726   0.00020   0.00108   0.00158   0.00267   2.09994
    A4        2.10165  -0.00014   0.00273  -0.00185   0.00085   2.10249
    A5        2.09349   0.00014  -0.00034   0.00122   0.00086   2.09436
    A6        2.08789   0.00000  -0.00245   0.00062  -0.00185   2.08604
    A7        2.09617   0.00095   0.00067   0.00589   0.00654   2.10271
    A8        2.10832   0.00001   0.00525  -0.00056   0.00468   2.11300
    A9        2.07869  -0.00096  -0.00592  -0.00535  -0.01128   2.06741
   A10        2.08503  -0.00178  -0.00353  -0.00788  -0.01144   2.07360
   A11        2.06953   0.00036  -0.00938   0.00408  -0.00533   2.06420
   A12        2.12846   0.00142   0.01284   0.00374   0.01654   2.14500
   A13        2.10043   0.00038   0.00228   0.00156   0.00383   2.10426
   A14        2.08739  -0.00036  -0.00264  -0.00171  -0.00435   2.08304
   A15        2.09536  -0.00003   0.00036   0.00016   0.00052   2.09588
   A16        2.09545   0.00084   0.00040   0.00399   0.00436   2.09980
   A17        2.09520  -0.00006   0.00030   0.00080   0.00110   2.09630
   A18        2.09245  -0.00078  -0.00073  -0.00478  -0.00551   2.08694
   A19        1.93347   0.00198   0.00861   0.01510   0.02358   1.95706
   A20        1.91381   0.00220   0.00120   0.01891   0.01998   1.93379
   A21        1.88340  -0.00186  -0.01027  -0.00948  -0.01999   1.86341
    D1        0.00701   0.00005   0.00264   0.00149   0.00409   0.01110
    D2        3.12971  -0.00001  -0.00448   0.00108  -0.00343   3.12628
    D3       -3.12962   0.00006   0.00451   0.00158   0.00606  -3.12356
    D4       -0.00693   0.00000  -0.00261   0.00117  -0.00146  -0.00839
    D5        0.01319   0.00003   0.00497  -0.00046   0.00448   0.01767
    D6        3.14021   0.00002  -0.00052   0.00136   0.00083   3.14104
    D7       -3.13336   0.00001   0.00311  -0.00056   0.00251  -3.13085
    D8       -0.00634   0.00000  -0.00239   0.00127  -0.00114  -0.00748
    D9       -0.02079  -0.00007  -0.00784  -0.00086  -0.00867  -0.02946
   D10        3.11620  -0.00020  -0.00957  -0.00762  -0.01718   3.09901
   D11        3.13964  -0.00001  -0.00074  -0.00046  -0.00121   3.13843
   D12       -0.00656  -0.00014  -0.00247  -0.00722  -0.00973  -0.01628
   D13        0.01419   0.00001   0.00535  -0.00083   0.00447   0.01866
   D14        3.13681  -0.00007  -0.00180  -0.00412  -0.00571   3.13110
   D15       -3.12288   0.00014   0.00706   0.00581   0.01272  -3.11015
   D16       -0.00026   0.00006  -0.00010   0.00252   0.00254   0.00229
   D17        0.00600   0.00006   0.00226   0.00188   0.00412   0.01012
   D18       -3.14019   0.00008   0.00053   0.00366   0.00415  -3.13604
   D19       -3.11596   0.00016   0.00966   0.00529   0.01507  -3.10089
   D20        0.02104   0.00017   0.00793   0.00707   0.01509   0.03613
   D21        1.46243  -0.00208  -0.04086  -0.23449  -0.27538   1.18705
   D22       -2.74383  -0.00177  -0.04745  -0.22491  -0.27221  -3.01603
   D23       -1.69863  -0.00220  -0.04820  -0.23800  -0.28634  -1.98497
   D24        0.37830  -0.00189  -0.05479  -0.22842  -0.28316   0.09513
   D25       -0.01975  -0.00008  -0.00745  -0.00123  -0.00866  -0.02841
   D26        3.13639  -0.00007  -0.00196  -0.00310  -0.00509   3.13130
   D27        3.12646  -0.00009  -0.00571  -0.00302  -0.00868   3.11778
   D28       -0.00059  -0.00009  -0.00022  -0.00488  -0.00510  -0.00569
         Item               Value     Threshold  Converged?
 Maximum Force            0.006081     0.000450     NO 
 RMS     Force            0.001218     0.000300     NO 
 Maximum Displacement     0.378445     0.001800     NO 
 RMS     Displacement     0.083069     0.001200     NO 
 Predicted change in Energy=-1.658017D-03
 GradGradGradGradGradGradGradGradGradGradGradGradGradGradGradGradGradGrad

                          Input orientation:                          
 ---------------------------------------------------------------------
 Center     Atomic      Atomic             Coordinates (Angstroms)
 Number     Number       Type             X           Y           Z
 ---------------------------------------------------------------------
      1          6           0       -3.709151   -0.138307   -0.031982
      2          6           0       -2.315815   -0.094771   -0.087310
      3          6           0       -1.643713    1.123777   -0.016327
      4          6           0       -2.357901    2.324175    0.076070
      5          6           0       -3.757854    2.275522    0.118621
      6          6           0       -4.426197    1.052508    0.081884
      7          1           0       -4.232676   -1.094996   -0.070834
      8          1           0       -1.743238   -1.021449   -0.161999
      9          1           0       -0.553924    1.166399   -0.018969
     10          1           0       -4.324650    3.208006    0.185486
     11          1           0       -5.516951    1.033001    0.125699
     12          7           0       -1.623617    3.540907    0.159105
     13          1           0       -1.127273    3.751596   -0.710249
     14          1           0       -2.247615    4.329659    0.340910
 ---------------------------------------------------------------------
                    Distance matrix (angstroms):
                    1          2          3          4          5
     1  C    0.000000
     2  C    1.395114   0.000000
     3  C    2.420565   1.393420   0.000000
     4  C    2.810938   2.424822   1.399842   0.000000
     5  C    2.419012   2.782117   2.411290   1.401445   0.000000
     6  C    1.394689   2.408026   2.785129   2.427966   1.394201
     7  H    1.091257   2.162193   3.410081   3.902191   3.409068
     8  H    2.159088   1.091858   2.152468   3.409939   3.873944
     9  H    3.414364   2.167828   1.090625   2.145649   3.393266
    10  H    3.409390   3.875329   3.401788   2.158989   1.093277
    11  H    2.159853   3.400664   3.876904   3.413092   2.153679
    12  N    4.233506   3.709179   2.423571   1.423553   2.481492
    13  H    4.717784   4.073723   2.766527   2.042125   3.128223
    14  H    4.715703   4.445628   3.281767   2.025900   2.559241
                    6          7          8          9         10
     6  C    0.000000
     7  H    2.161608   0.000000
     8  H    3.399860   2.492192   0.000000
     9  H    3.875260   4.318543   2.494314   0.000000
    10  H    2.160375   4.311611   4.967165   4.292824   0.000000
    11  H    1.091808   2.493263   4.306326   4.966927   2.481090
    12  N    3.748672   5.324627   4.575205   2.610410   2.721598
    13  H    4.335373   5.791532   4.843753   2.736757   3.364677
    14  H    3.943734   5.791104   5.398302   3.606149   2.365658
                   11         12         13         14
    11  H    0.000000
    12  N    4.631280   0.000000
    13  H    5.230569   1.022998   0.000000
    14  H    4.647885   1.022035   1.641420   0.000000
 Stoichiometry    C6H7N
 Framework group  C1[X(C6H7N)]
 Deg. of freedom    36
 Full point group                 C1      NOp   1
 Largest Abelian subgroup         C1      NOp   1
 Largest concise Abelian subgroup C1      NOp   1
                         Standard orientation:                         
 ---------------------------------------------------------------------
 Center     Atomic      Atomic             Coordinates (Angstroms)
 Number     Number       Type             X           Y           Z
 ---------------------------------------------------------------------
      1          6           0        1.878371    0.004568    0.016100
      2          6           0        1.176325   -1.200986    0.005355
      3          6           0       -0.216643   -1.207027   -0.029635
      4          6           0       -0.932334   -0.004018   -0.018975
      5          6           0       -0.222299    1.204014    0.004546
      6          6           0        1.171899    1.207036    0.004950
      7          1           0        2.969577    0.006855    0.026538
      8          1           0        1.718767   -2.148549   -0.000564
      9          1           0       -0.774336   -2.143026   -0.078073
     10          1           0       -0.772396    2.148715    0.018313
     11          1           0        1.708673    2.157742    0.013683
     12          7           0       -2.353711   -0.064629   -0.069138
     13          1           0       -2.752948   -0.460916    0.785316
     14          1           0       -2.753276    0.870055   -0.175295
 ---------------------------------------------------------------------
 Rotational constants (GHZ):           5.6122504           2.5702450           1.7719079
 Standard basis: 6-31G(d) (6D, 7F)
 There are   119 symmetry adapted cartesian basis functions of A   symmetry.
 There are   119 symmetry adapted basis functions of A   symmetry.
   119 basis functions,   224 primitive gaussians,   119 cartesian basis functions
    25 alpha electrons       25 beta electrons
       nuclear repulsion energy       270.5563433762 Hartrees.
 NAtoms=   14 NActive=   14 NUniq=   14 SFac= 1.00D+00 NAtFMM=   60 NAOKFM=F Big=F
 Integral buffers will be    131072 words long.
 Raffenetti 2 integral format.
 Two-electron integral symmetry is turned on.
 One-electron integrals computed using PRISM.
 NBasis=   119 RedAO= T EigKep=  4.61D-04  NBF=   119
 NBsUse=   119 1.00D-06 EigRej= -1.00D+00 NBFU=   119
 Initial guess from the checkpoint file:  "D:\tools\G16W\Scratch\Gau-98424.chk"
 B after Tr=     0.000000    0.000000    0.000000
         Rot=    0.999984   -0.004299    0.000013    0.003767 Ang=  -0.65 deg.
 ExpMin= 1.61D-01 ExpMax= 4.17D+03 ExpMxC= 6.27D+02 IAcc=2 IRadAn=         4 AccDes= 0.00D+00
 Harris functional with IExCor=  402 and IRadAn=       4 diagonalized for initial guess.
 HarFok:  IExCor=  402 AccDes= 0.00D+00 IRadAn=         4 IDoV= 1 UseB2=F ITyADJ=14
 ICtDFT=  3500011 ScaDFX=  1.000000  1.000000  1.000000  1.000000
 FoFCou: FMM=F IPFlag=           0 FMFlag=      100000 FMFlg1=           0
         NFxFlg=           0 DoJE=T BraDBF=F KetDBF=T FulRan=T
         wScrn=  0.000000 ICntrl=       500 IOpCl=  0 I1Cent=   200000004 NGrid=           0
         NMat0=    1 NMatS0=      1 NMatT0=    0 NMatD0=    1 NMtDS0=    0 NMtDT0=    0
 Petite list used in FoFCou.
 Requested convergence on RMS density matrix=1.00D-08 within 128 cycles.
 Requested convergence on MAX density matrix=1.00D-06.
 Requested convergence on             energy=1.00D-06.
 No special actions if energy rises.
 Integral accuracy reduced to 1.0D-05 until final iterations.
 Initial convergence to 1.0D-05 achieved.  Increase integral accuracy.
 SCF Done:  E(RB3LYP) =  -287.598170726     A.U. after   12 cycles
            NFock= 12  Conv=0.74D-08     -V/T= 2.0100
 Calling FoFJK, ICntrl=      2127 FMM=F ISym2X=0 I1Cent= 0 IOpClX= 0 NMat=1 NMatS=1 NMatT=0.
 ***** Axes restored to original set *****
 -------------------------------------------------------------------
 Center     Atomic                   Forces (Hartrees/Bohr)
 Number     Number              X              Y              Z
 -------------------------------------------------------------------
      1        6          -0.003379521   -0.003873975   -0.000046806
      2        6           0.003980044   -0.002506153    0.000358386
      3        6           0.003176755   -0.002406106   -0.001720404
      4        6           0.002957972    0.001425664   -0.000957441
      5        6          -0.001454569    0.005274360    0.002301984
      6        6          -0.003381222   -0.000470503   -0.000108147
      7        1           0.001548376    0.002871275    0.000059687
      8        1          -0.001604669    0.002713972    0.000046224
      9        1          -0.002493136   -0.000995713   -0.000266076
     10        1           0.001382566   -0.002744437   -0.000177464
     11        1           0.003190160    0.000231046   -0.000124927
     12        7          -0.007109328    0.006472286   -0.003331573
     13        1           0.000712928   -0.003215978    0.004929808
     14        1           0.002473643   -0.002775738   -0.000963250
 -------------------------------------------------------------------
 Cartesian Forces:  Max     0.007109328 RMS     0.002790908

 GradGradGradGradGradGradGradGradGradGradGradGradGradGradGradGradGradGrad
 Berny optimization.
 Using GEDIIS/GDIIS optimizer.
 FormGI is forming the generalized inverse of G from B-inverse, IUseBI=4.
 Internal  Forces:  Max     0.004505705 RMS     0.001531296
 Search for a local minimum.
 Step number   3 out of a maximum of   73
 All quantities printed in internal units (Hartrees-Bohrs-Radians)
 Mixed Optimization -- RFO/linear search
 Update second derivatives using D2CorX and points    2    3
 DE= -2.34D-03 DEPred=-1.66D-03 R= 1.41D+00
 TightC=F SS=  1.41D+00  RLast= 5.64D-01 DXNew= 8.4853D-01 1.6914D+00
 Trust test= 1.41D+00 RLast= 5.64D-01 DXMaxT set to 8.49D-01
 ITU=  1  1  0
 Use linear search instead of GDIIS.
     Eigenvalues ---    0.00157   0.01666   0.02068   0.02070   0.02070
     Eigenvalues ---    0.02071   0.02071   0.02071   0.02075   0.02102
     Eigenvalues ---    0.05332   0.15918   0.15996   0.15998   0.16000
     Eigenvalues ---    0.16000   0.16027   0.16643   0.21926   0.22099
     Eigenvalues ---    0.23541   0.26836   0.33310   0.37226   0.37230
     Eigenvalues ---    0.37230   0.37255   0.41023   0.41472   0.41548
     Eigenvalues ---    0.45167   0.45389   0.45548   0.46231   0.47685
     Eigenvalues ---    0.63487
 RFO step:  Lambda=-1.53338056D-03 EMin= 1.56855085D-03
 Quartic linear search produced a step of  0.91713.
 Iteration  1 RMS(Cart)=  0.05746511 RMS(Int)=  0.06111367
 Iteration  2 RMS(Cart)=  0.05959084 RMS(Int)=  0.01242207
 Iteration  3 RMS(Cart)=  0.01400505 RMS(Int)=  0.00052036
 Iteration  4 RMS(Cart)=  0.00037328 RMS(Int)=  0.00034405
 Iteration  5 RMS(Cart)=  0.00000023 RMS(Int)=  0.00034405
 Variable       Old X    -DE/DX   Delta X   Delta X   Delta X     New X
                                 (Linear)    (Quad)   (Total)
    R1        2.63638   0.00196  -0.00240   0.00453   0.00210   2.63848
    R2        2.63558   0.00083  -0.00171  -0.00014  -0.00186   2.63372
    R3        2.06218  -0.00326   0.00775  -0.00603   0.00171   2.06389
    R4        2.63318  -0.00031  -0.00518  -0.00262  -0.00780   2.62538
    R5        2.06331  -0.00315   0.00899  -0.00591   0.00308   2.06639
    R6        2.64532   0.00350   0.00735   0.00729   0.01466   2.65998
    R7        2.06098  -0.00253   0.00804  -0.00346   0.00458   2.06557
    R8        2.64835   0.00014   0.00120  -0.00010   0.00112   2.64947
    R9        2.69012  -0.00158  -0.03353  -0.01458  -0.04811   2.64201
   R10        2.63466   0.00103  -0.00410   0.00168  -0.00242   2.63224
   R11        2.06600  -0.00307   0.01006  -0.00536   0.00470   2.07069
   R12        2.06322  -0.00320   0.00837  -0.00579   0.00258   2.06580
   R13        1.93319  -0.00451   0.01073  -0.00781   0.00293   1.93611
   R14        1.93137  -0.00382   0.01091  -0.00620   0.00471   1.93608
    A1        2.08296  -0.00016  -0.00404  -0.00264  -0.00671   2.07625
    A2        2.10027   0.00010   0.00158   0.00179   0.00339   2.10366
    A3        2.09994   0.00006   0.00245   0.00086   0.00332   2.10326
    A4        2.10249  -0.00004   0.00078   0.00200   0.00275   2.10524
    A5        2.09436   0.00008   0.00079   0.00027   0.00106   2.09542
    A6        2.08604  -0.00004  -0.00170  -0.00204  -0.00374   2.08230
    A7        2.10271  -0.00011   0.00600  -0.00114   0.00488   2.10759
    A8        2.11300  -0.00089   0.00429  -0.00595  -0.00169   2.11131
    A9        2.06741   0.00100  -0.01035   0.00711  -0.00327   2.06414
   A10        2.07360   0.00006  -0.01049   0.00031  -0.01024   2.06336
   A11        2.06420   0.00325  -0.00489   0.01375   0.00870   2.07290
   A12        2.14500  -0.00332   0.01517  -0.01453   0.00048   2.14547
   A13        2.10426  -0.00033   0.00351  -0.00147   0.00209   2.10634
   A14        2.08304   0.00042  -0.00399   0.00255  -0.00146   2.08157
   A15        2.09588  -0.00008   0.00048  -0.00108  -0.00062   2.09526
   A16        2.09980   0.00059   0.00400   0.00314   0.00714   2.10694
   A17        2.09630  -0.00012   0.00101  -0.00013   0.00088   2.09718
   A18        2.08694  -0.00048  -0.00506  -0.00299  -0.00804   2.07889
   A19        1.95706  -0.00018   0.02163   0.01123   0.03180   1.98886
   A20        1.93379   0.00109   0.01832   0.01869   0.03594   1.96973
   A21        1.86341   0.00124  -0.01833   0.03038   0.01024   1.87365
    D1        0.01110  -0.00006   0.00375  -0.00490  -0.00115   0.00995
    D2        3.12628   0.00012  -0.00315   0.00516   0.00200   3.12828
    D3       -3.12356  -0.00011   0.00556  -0.00692  -0.00137  -3.12493
    D4       -0.00839   0.00007  -0.00134   0.00314   0.00179  -0.00660
    D5        0.01767  -0.00005   0.00411  -0.00100   0.00310   0.02077
    D6        3.14104   0.00001   0.00076   0.00064   0.00138  -3.14077
    D7       -3.13085   0.00000   0.00230   0.00102   0.00332  -3.12753
    D8       -0.00748   0.00006  -0.00104   0.00266   0.00160  -0.00588
    D9       -0.02946   0.00013  -0.00795   0.00541  -0.00252  -0.03198
   D10        3.09901   0.00013  -0.01576   0.00745  -0.00833   3.09068
   D11        3.13843  -0.00005  -0.00111  -0.00463  -0.00573   3.13270
   D12       -0.01628  -0.00006  -0.00892  -0.00259  -0.01154  -0.02782
   D13        0.01866  -0.00006   0.00410   0.00008   0.00413   0.02279
   D14        3.13110  -0.00029  -0.00524  -0.01770  -0.02288   3.10822
   D15       -3.11015  -0.00004   0.01167  -0.00181   0.00978  -3.10038
   D16        0.00229  -0.00028   0.00233  -0.01959  -0.01723  -0.01495
   D17        0.01012  -0.00007   0.00378  -0.00608  -0.00227   0.00785
   D18       -3.13604  -0.00003   0.00380  -0.00497  -0.00113  -3.13717
   D19       -3.10089   0.00006   0.01382   0.01206   0.02581  -3.07509
   D20        0.03613   0.00010   0.01384   0.01318   0.02694   0.06307
   D21        1.18705  -0.00285  -0.25256  -0.20203  -0.45515   0.73190
   D22       -3.01603  -0.00066  -0.24965  -0.14344  -0.39231   2.87484
   D23       -1.98497  -0.00303  -0.26261  -0.22030  -0.48369  -2.46865
   D24        0.09513  -0.00084  -0.25970  -0.16171  -0.42085  -0.32572
   D25       -0.02841   0.00013  -0.00795   0.00656  -0.00140  -0.02982
   D26        3.13130   0.00006  -0.00467   0.00490   0.00021   3.13152
   D27        3.11778   0.00008  -0.00796   0.00542  -0.00255   3.11523
   D28       -0.00569   0.00002  -0.00468   0.00377  -0.00093  -0.00662
         Item               Value     Threshold  Converged?
 Maximum Force            0.004506     0.000450     NO 
 RMS     Force            0.001531     0.000300     NO 
 Maximum Displacement     0.598216     0.001800     NO 
 RMS     Displacement     0.127102     0.001200     NO 
 Predicted change in Energy=-2.762690D-03
 GradGradGradGradGradGradGradGradGradGradGradGradGradGradGradGradGradGrad

                          Input orientation:                          
 ---------------------------------------------------------------------
 Center     Atomic      Atomic             Coordinates (Angstroms)
 Number     Number       Type             X           Y           Z
 ---------------------------------------------------------------------
      1          6           0       -3.709219   -0.142385   -0.032937
      2          6           0       -2.317345   -0.073477   -0.118868
      3          6           0       -1.663541    1.150173   -0.045689
      4          6           0       -2.391117    2.348792    0.077963
      5          6           0       -3.788984    2.271123    0.153105
      6          6           0       -4.435422    1.037858    0.115600
      7          1           0       -4.220645   -1.106486   -0.075063
      8          1           0       -1.729014   -0.989295   -0.223091
      9          1           0       -0.572123    1.206758   -0.064811
     10          1           0       -4.372565    3.193950    0.245412
     11          1           0       -5.525902    1.006626    0.185648
     12          7           0       -1.689857    3.553202    0.188853
     13          1           0       -0.884490    3.625062   -0.440367
     14          1           0       -2.280351    4.374126    0.024347
 ---------------------------------------------------------------------
                    Distance matrix (angstroms):
                    1          2          3          4          5
     1  C    0.000000
     2  C    1.396226   0.000000
     3  C    2.419849   1.389293   0.000000
     4  C    2.820577   2.431372   1.407602   0.000000
     5  C    2.421981   2.781517   2.411131   1.402038   0.000000
     6  C    1.393703   2.403392   2.778841   2.428817   1.392922
     7  H    1.092164   2.166005   3.410595   3.912740   3.412716
     8  H    2.162089   1.093489   2.147808   3.416407   3.874961
     9  H    3.415051   2.165114   1.093051   2.152525   3.395372
    10  H    3.413010   3.877204   3.405962   2.160664   1.095764
    11  H    2.160635   3.399146   3.871945   3.411727   2.148696
    12  N    4.217153   3.693404   2.414591   1.398094   2.459947
    13  H    4.726389   3.979400   2.624456   2.041435   3.259056
    14  H    4.737491   4.450062   3.283174   2.029069   2.591365
                    6          7          8          9         10
     6  C    0.000000
     7  H    2.163491   0.000000
     8  H    3.398338   2.498774   0.000000
     9  H    3.871195   4.320059   2.487186   0.000000
    10  H    2.160911   4.315036   4.970653   4.299829   0.000000
    11  H    1.093173   2.497380   4.308959   4.964142   2.473488
    12  N    3.724306   5.309165   4.561306   2.611413   2.707247
    13  H    4.428527   5.800942   4.696032   2.467147   3.580896
    14  H    3.972826   5.814785   5.397358   3.599752   2.412269
                   11         12         13         14
    11  H    0.000000
    12  N    4.604379   0.000000
    13  H    5.365707   1.024547   0.000000
    14  H    4.679708   1.024530   1.650904   0.000000
 Stoichiometry    C6H7N
 Framework group  C1[X(C6H7N)]
 Deg. of freedom    36
 Full point group                 C1      NOp   1
 Largest Abelian subgroup         C1      NOp   1
 Largest concise Abelian subgroup C1      NOp   1
                         Standard orientation:                         
 ---------------------------------------------------------------------
 Center     Atomic      Atomic             Coordinates (Angstroms)
 Number     Number       Type             X           Y           Z
 ---------------------------------------------------------------------
      1          6           0        1.879484   -0.013204    0.014352
      2          6           0        1.158715   -1.209001    0.011321
      3          6           0       -0.230170   -1.198032   -0.020487
      4          6           0       -0.940812    0.016979   -0.011633
      5          6           0       -0.209176    1.212904    0.001930
      6          6           0        1.183612    1.194220   -0.002930
      7          1           0        2.971557   -0.023662    0.023707
      8          1           0        1.686538   -2.166665    0.012082
      9          1           0       -0.799000   -2.130056   -0.070721
     10          1           0       -0.745074    2.168616    0.013198
     11          1           0        1.728227    2.142070   -0.001688
     12          7           0       -2.336483   -0.019273   -0.085493
     13          1           0       -2.764746   -0.749382    0.491767
     14          1           0       -2.772036    0.870788    0.174784
 ---------------------------------------------------------------------
 Rotational constants (GHZ):           5.6206942           2.5870269           1.7762722
 Standard basis: 6-31G(d) (6D, 7F)
 There are   119 symmetry adapted cartesian basis functions of A   symmetry.
 There are   119 symmetry adapted basis functions of A   symmetry.
   119 basis functions,   224 primitive gaussians,   119 cartesian basis functions
    25 alpha electrons       25 beta electrons
       nuclear repulsion energy       270.9569023501 Hartrees.
 NAtoms=   14 NActive=   14 NUniq=   14 SFac= 1.00D+00 NAtFMM=   60 NAOKFM=F Big=F
 Integral buffers will be    131072 words long.
 Raffenetti 2 integral format.
 Two-electron integral symmetry is turned on.
 One-electron integrals computed using PRISM.
 NBasis=   119 RedAO= T EigKep=  4.63D-04  NBF=   119
 NBsUse=   119 1.00D-06 EigRej= -1.00D+00 NBFU=   119
 Initial guess from the checkpoint file:  "D:\tools\G16W\Scratch\Gau-98424.chk"
 B after Tr=     0.000000    0.000000    0.000000
         Rot=    0.999986   -0.003932    0.000107    0.003659 Ang=  -0.62 deg.
 ExpMin= 1.61D-01 ExpMax= 4.17D+03 ExpMxC= 6.27D+02 IAcc=2 IRadAn=         4 AccDes= 0.00D+00
 Harris functional with IExCor=  402 and IRadAn=       4 diagonalized for initial guess.
 HarFok:  IExCor=  402 AccDes= 0.00D+00 IRadAn=         4 IDoV= 1 UseB2=F ITyADJ=14
 ICtDFT=  3500011 ScaDFX=  1.000000  1.000000  1.000000  1.000000
 FoFCou: FMM=F IPFlag=           0 FMFlag=      100000 FMFlg1=           0
         NFxFlg=           0 DoJE=T BraDBF=F KetDBF=T FulRan=T
         wScrn=  0.000000 ICntrl=       500 IOpCl=  0 I1Cent=   200000004 NGrid=           0
         NMat0=    1 NMatS0=      1 NMatT0=    0 NMatD0=    1 NMtDS0=    0 NMtDT0=    0
 Petite list used in FoFCou.
 Requested convergence on RMS density matrix=1.00D-08 within 128 cycles.
 Requested convergence on MAX density matrix=1.00D-06.
 Requested convergence on             energy=1.00D-06.
 No special actions if energy rises.
 Integral accuracy reduced to 1.0D-05 until final iterations.
 Initial convergence to 1.0D-05 achieved.  Increase integral accuracy.
 SCF Done:  E(RB3LYP) =  -287.600562497     A.U. after   14 cycles
            NFock= 14  Conv=0.40D-08     -V/T= 2.0100
 Calling FoFJK, ICntrl=      2127 FMM=F ISym2X=0 I1Cent= 0 IOpClX= 0 NMat=1 NMatS=1 NMatT=0.
 ***** Axes restored to original set *****
 -------------------------------------------------------------------
 Center     Atomic                   Forces (Hartrees/Bohr)
 Number     Number              X              Y              Z
 -------------------------------------------------------------------
      1        6          -0.003014966   -0.004765449    0.000023950
      2        6           0.003452283   -0.005028343    0.000843944
      3        6           0.003589851    0.002622804   -0.000498197
      4        6           0.002678588   -0.010696322   -0.000655695
      5        6          -0.002251147    0.008984897    0.001485822
      6        6          -0.005056425   -0.000467828   -0.000899841
      7        1           0.001939184    0.003594866    0.000068127
      8        1          -0.002301841    0.003424062    0.000254386
      9        1          -0.003315344   -0.001732191   -0.001040710
     10        1           0.002227583   -0.004102594    0.000038378
     11        1           0.004011482    0.000028923   -0.000357798
     12        7          -0.000738660    0.017851372   -0.008970118
     13        1          -0.004382653   -0.003858585    0.006543098
     14        1           0.003162066   -0.005855613    0.003164655
 -------------------------------------------------------------------
 Cartesian Forces:  Max     0.017851372 RMS     0.004741162

 GradGradGradGradGradGradGradGradGradGradGradGradGradGradGradGradGradGrad
 Berny optimization.
 Using GEDIIS/GDIIS optimizer.
 FormGI is forming the generalized inverse of G from B-inverse, IUseBI=4.
 Internal  Forces:  Max     0.007733825 RMS     0.002343097
 Search for a local minimum.
 Step number   4 out of a maximum of   73
 All quantities printed in internal units (Hartrees-Bohrs-Radians)
 Mixed Optimization -- RFO/linear search
 Update second derivatives using D2CorX and points    3    4
 DE= -2.39D-03 DEPred=-2.76D-03 R= 8.66D-01
 TightC=F SS=  1.41D+00  RLast= 8.83D-01 DXNew= 1.4270D+00 2.6500D+00
 Trust test= 8.66D-01 RLast= 8.83D-01 DXMaxT set to 1.43D+00
 ITU=  1  1  1  0
 Use linear search instead of GDIIS.
     Eigenvalues ---    0.00298   0.01672   0.02067   0.02070   0.02070
     Eigenvalues ---    0.02071   0.02071   0.02072   0.02075   0.02137
     Eigenvalues ---    0.04542   0.15888   0.15997   0.15998   0.16000
     Eigenvalues ---    0.16002   0.16033   0.16784   0.21889   0.22099
     Eigenvalues ---    0.23487   0.26314   0.34569   0.37226   0.37230
     Eigenvalues ---    0.37233   0.37264   0.40995   0.41320   0.41616
     Eigenvalues ---    0.45258   0.45397   0.45539   0.46193   0.47684
     Eigenvalues ---    0.58654
 RFO step:  Lambda=-1.06012264D-03 EMin= 2.98380999D-03
 Quartic linear search produced a step of  0.19297.
 Iteration  1 RMS(Cart)=  0.04207507 RMS(Int)=  0.00315305
 Iteration  2 RMS(Cart)=  0.00316502 RMS(Int)=  0.00021000
 Iteration  3 RMS(Cart)=  0.00001960 RMS(Int)=  0.00020956
 Iteration  4 RMS(Cart)=  0.00000002 RMS(Int)=  0.00020956
 Variable       Old X    -DE/DX   Delta X   Delta X   Delta X     New X
                                 (Linear)    (Quad)   (Total)
    R1        2.63848   0.00156   0.00041   0.00147   0.00188   2.64036
    R2        2.63372   0.00115  -0.00036   0.00148   0.00112   2.63484
    R3        2.06389  -0.00408   0.00033  -0.00606  -0.00573   2.05816
    R4        2.62538   0.00164  -0.00150   0.00230   0.00080   2.62618
    R5        2.06639  -0.00413   0.00059  -0.00588  -0.00528   2.06111
    R6        2.65998   0.00065   0.00283   0.00128   0.00411   2.66409
    R7        2.06557  -0.00338   0.00088  -0.00450  -0.00361   2.06196
    R8        2.64947   0.00041   0.00022   0.00126   0.00147   2.65094
    R9        2.64201   0.00609  -0.00928   0.00789  -0.00140   2.64062
   R10        2.63224   0.00164  -0.00047   0.00170   0.00124   2.63348
   R11        2.07069  -0.00464   0.00091  -0.00709  -0.00619   2.06451
   R12        2.06580  -0.00403   0.00050  -0.00571  -0.00521   2.06059
   R13        1.93611  -0.00773   0.00056  -0.01084  -0.01028   1.92584
   R14        1.93608  -0.00702   0.00091  -0.00960  -0.00869   1.92739
    A1        2.07625  -0.00004  -0.00130  -0.00106  -0.00239   2.07386
    A2        2.10366  -0.00002   0.00065   0.00012   0.00078   2.10444
    A3        2.10326   0.00006   0.00064   0.00098   0.00163   2.10489
    A4        2.10524  -0.00001   0.00053   0.00097   0.00141   2.10665
    A5        2.09542  -0.00007   0.00021  -0.00050  -0.00034   2.09508
    A6        2.08230   0.00009  -0.00072  -0.00008  -0.00085   2.08145
    A7        2.10759  -0.00063   0.00094  -0.00089   0.00001   2.10760
    A8        2.11131  -0.00138  -0.00033  -0.00661  -0.00692   2.10439
    A9        2.06414   0.00201  -0.00063   0.00754   0.00693   2.07107
   A10        2.06336   0.00121  -0.00198   0.00161  -0.00043   2.06294
   A11        2.07290   0.00534   0.00168   0.01778   0.01946   2.09236
   A12        2.14547  -0.00654   0.00009  -0.01906  -0.01897   2.12651
   A13        2.10634  -0.00067   0.00040  -0.00148  -0.00111   2.10523
   A14        2.08157   0.00066  -0.00028   0.00164   0.00138   2.08295
   A15        2.09526   0.00001  -0.00012  -0.00015  -0.00026   2.09501
   A16        2.10694   0.00016   0.00138   0.00177   0.00309   2.11003
   A17        2.09718  -0.00017   0.00017  -0.00073  -0.00057   2.09661
   A18        2.07889   0.00002  -0.00155  -0.00081  -0.00237   2.07652
   A19        1.98886  -0.00220   0.00614   0.00139   0.00684   1.99570
   A20        1.96973   0.00077   0.00694   0.01822   0.02446   1.99420
   A21        1.87365   0.00299   0.00198   0.02706   0.02795   1.90160
    D1        0.00995  -0.00018  -0.00022  -0.00722  -0.00746   0.00249
    D2        3.12828   0.00031   0.00039   0.01256   0.01295   3.14123
    D3       -3.12493  -0.00034  -0.00026  -0.01378  -0.01405  -3.13899
    D4       -0.00660   0.00015   0.00034   0.00601   0.00635  -0.00025
    D5        0.02077  -0.00032   0.00060  -0.01464  -0.01405   0.00672
    D6       -3.14077  -0.00003   0.00027  -0.00127  -0.00100   3.14142
    D7       -3.12753  -0.00017   0.00064  -0.00808  -0.00745  -3.13498
    D8       -0.00588   0.00013   0.00031   0.00529   0.00560  -0.00029
    D9       -0.03198   0.00054  -0.00049   0.02364   0.02315  -0.00883
   D10        3.09068   0.00063  -0.00161   0.02637   0.02477   3.11545
   D11        3.13270   0.00006  -0.00111   0.00400   0.00290   3.13560
   D12       -0.02782   0.00015  -0.00223   0.00674   0.00451  -0.02331
   D13        0.02279  -0.00037   0.00080  -0.01774  -0.01694   0.00585
   D14        3.10822  -0.00049  -0.00442  -0.01184  -0.01622   3.09199
   D15       -3.10038  -0.00042   0.00189  -0.02025  -0.01838  -3.11875
   D16       -0.01495  -0.00054  -0.00333  -0.01435  -0.01766  -0.03261
   D17        0.00785  -0.00015  -0.00044  -0.00413  -0.00454   0.00331
   D18       -3.13717  -0.00002  -0.00022  -0.00009  -0.00029  -3.13746
   D19       -3.07509  -0.00045   0.00498  -0.01159  -0.00660  -3.08169
   D20        0.06307  -0.00031   0.00520  -0.00755  -0.00235   0.06072
   D21        0.73190  -0.00215  -0.08783  -0.09312  -0.18132   0.55058
   D22        2.87484   0.00075  -0.07570  -0.04098  -0.11628   2.75856
   D23       -2.46865  -0.00199  -0.09334  -0.08615  -0.17989  -2.64854
   D24       -0.32572   0.00091  -0.08121  -0.03400  -0.11484  -0.44056
   D25       -0.02982   0.00050  -0.00027   0.02040   0.02013  -0.00968
   D26        3.13152   0.00020   0.00004   0.00717   0.00721   3.13873
   D27        3.11523   0.00036  -0.00049   0.01633   0.01585   3.13108
   D28       -0.00662   0.00007  -0.00018   0.00310   0.00293  -0.00369
         Item               Value     Threshold  Converged?
 Maximum Force            0.007734     0.000450     NO 
 RMS     Force            0.002343     0.000300     NO 
 Maximum Displacement     0.231895     0.001800     NO 
 RMS     Displacement     0.042391     0.001200     NO 
 Predicted change in Energy=-7.067334D-04
 GradGradGradGradGradGradGradGradGradGradGradGradGradGradGradGradGradGrad

                          Input orientation:                          
 ---------------------------------------------------------------------
 Center     Atomic      Atomic             Coordinates (Angstroms)
 Number     Number       Type             X           Y           Z
 ---------------------------------------------------------------------
      1          6           0       -3.709824   -0.146012   -0.025690
      2          6           0       -2.317551   -0.072935   -0.117677
      3          6           0       -1.666323    1.153590   -0.064313
      4          6           0       -2.396067    2.351945    0.073112
      5          6           0       -3.793732    2.270497    0.161401
      6          6           0       -4.436925    1.034997    0.117847
      7          1           0       -4.217902   -1.108560   -0.065322
      8          1           0       -1.729196   -0.984434   -0.230020
      9          1           0       -0.577500    1.206371   -0.111905
[...]
     1         -2.99875471          1.20619357         -1.97635772
     1         -1.39128409         -1.54960215          1.42859303
     1         -8.42071016         -5.63936239          1.42793263
     1        -10.02176162         -2.87945037         -1.97652187
     7         -3.84750403         -5.41434006          3.53319655
     1         -2.45752744         -4.66597395          4.61549939
     1         -5.18516305         -6.25259387          4.61556343

 Electric dipole moment (dipole orientation):
 (Debye = 10**-18 statcoulomb cm , SI units = C m)
                  (au)            (Debye)         (10**-30 SI)
   Tot        0.673724D+00      0.171243D+01      0.571207D+01
   x          0.000000D+00      0.000000D+00      0.000000D+00
   y          0.000000D+00      0.000000D+00      0.000000D+00
   z          0.673724D+00      0.171243D+01      0.571207D+01

 Dipole polarizability, Alpha (dipole orientation).
 (esu units = cm**3 , SI units = C**2 m**2 J**-1)
 Alpha(0;0):
               (au)            (10**-24 esu)      (10**-40 SI)
   iso        0.640724D+02      0.949456D+01      0.105641D+02
   aniso      0.608117D+02      0.901136D+01      0.100265D+02
   xx         0.708595D+02      0.105003D+02      0.116832D+02
   yx         0.934347D+01      0.138456D+01      0.154053D+01
   yy         0.602393D+02      0.892655D+01      0.993212D+01
   zx         0.167585D+02      0.248335D+01      0.276310D+01
   zy        -0.288062D+02     -0.426864D+01     -0.474950D+01
   zz         0.611185D+02      0.905683D+01      0.100771D+02

 First dipole hyperpolarizability, Beta (dipole orientation).
 ||, _|_  parallel and perpendicular components, (z) with respect to z axis,
 vector components x,y,z.  Values do not include the 1/n! factor of 1/2.
 (esu units = statvolt**-1 cm**4 , SI units = C**3 m**3 J**-2)
 Beta(0;0,0):
               (au)            (10**-30 esu)      (10**-50 SI)
   || (z)    -0.781059D+02     -0.674774D+00     -0.250436D+00
   _|_(z)    -0.260353D+02     -0.224925D+00     -0.834786D-01
   x         -0.276136D+03     -0.238560D+01     -0.885390D+00
   y          0.474727D+03      0.410127D+01      0.152215D+01
   z         -0.390530D+03     -0.337387D+01     -0.125218D+01
   ||         0.134778D+03      0.116438D+01      0.432148D+00
   xxx       -0.135758D+00     -0.117284D-02     -0.435288D-03
   xxy        0.214066D+02      0.184936D+00      0.686372D-01
   yxy       -0.488435D+02     -0.421970D+00     -0.156610D+00
   yyy        0.627906D+02      0.542462D+00      0.201329D+00
   xxz       -0.603296D+01     -0.521201D-01     -0.193439D-01
   yxz        0.551030D+02      0.476047D+00      0.176680D+00
   yyz       -0.687153D+02     -0.593647D+00     -0.220326D+00
   zxz       -0.430659D+02     -0.372056D+00     -0.138085D+00
   zyz        0.740452D+02      0.639693D+00      0.237416D+00
   zzz       -0.554283D+02     -0.478857D+00     -0.177723D+00

 ----------------------------------------------------------------------
 1|1|UNPC-KIMARIBOOK|Freq|RB3LYP|6-31G(d)|C6H7N1|KIMARIYB|12-Jul-2023|0
 ||#N Geom=AllCheck Guess=TCheck SCRF=Check GenChk RB3LYP/6-31G(d) Freq
 ||Title Card Required||0,1|C,-3.7094136203,-0.1453005157,-0.0227119587
 |C,-2.3178030741,-0.0739607935,-0.1152603778|C,-1.6623734542,1.1545855
 908,-0.0711496652|C,-2.3924947185,2.3470281376,0.0689041048|C,-3.79257
 19858,2.2715850451,0.1620115084|C,-4.4380755386,1.0378272413,0.1167357
 267|H,-4.2165327423,-1.1049454462,-0.0592317355|H,-1.73238928,-0.98346
 61543,-0.2258083218|H,-0.5772467662,1.1971477692,-0.1399780326|H,-4.37
 08304756,3.1863640291,0.2754004397|H,-5.5224067721,1.0039735354,0.1888
 784666|N,-1.7350510186,3.5790453825,0.1736737956|H,-0.8207144028,3.607
 1363246,-0.2611531401|H,-2.2926710709,4.379007114,-0.10020749||Version
 =EM64W-G16RevA.03|State=1-A|HF=-287.6017527|RMSD=2.220e-009|RMSF=1.725
 e-005|ZeroPoint=0.1173868|Thermal=0.123165|Dipole=0.1978264,0.4692587,
 -0.4410948|DipoleDeriv=-0.2265215,0.100951,0.0107852,0.1011272,-0.0869
 31,-0.0038801,0.0098436,-0.0056697,-0.1635169,0.2058977,-0.0623633,-0.
 0258949,0.0831377,0.1677399,0.0186439,-0.0155024,0.0247286,-0.0863075,
 0.1041187,0.1023271,-0.000084,-0.2528338,-0.3605724,0.0016256,-0.02423
 78,-0.0123973,-0.179718,0.2758581,0.6138097,0.0551293,0.6117634,1.1014
 165,0.0636476,0.0648911,0.0822307,0.146824,-0.1439436,-0.4176307,-0.04
 27787,-0.0645217,-0.1184857,0.0176723,-0.0087506,0.0506424,-0.1737741,
 0.1726569,0.0592222,-0.00937,-0.0855127,0.2015604,0.0303569,-0.0233148
 ,0.0174406,-0.0868541,0.0123576,-0.075835,0.0019961,-0.0758988,-0.0907
 304,-0.01016,0.0022169,-0.0097117,0.1188242,0.0046897,0.0918801,0.0145
 422,0.0830323,-0.0779706,-0.0186777,0.0145312,-0.0206174,0.1042346,-0.
 1354722,-0.0211712,0.0175067,-0.0383638,0.0456539,-0.0019718,0.0199814
 ,-0.0027781,0.1121784,0.0146632,0.0655188,0.0113405,0.0823062,-0.10434
 87,-0.0205796,0.0108144,-0.016116,0.1120549,-0.134492,-0.0120126,0.016
 5486,-0.0029787,0.0599007,-0.0023364,0.0157699,-0.0019073,0.1055452,-0
 .3948517,-0.551602,-0.1017099,-0.5123925,-1.0501158,-0.1034465,-0.2898
 925,-0.4623099,-0.5286119,0.1504907,0.0557991,0.0671595,0.0476462,0.14
 11821,-0.0099574,0.1839656,0.1385292,0.2468311,0.0945483,0.0511068,-0.
 0151707,0.023489,0.171701,0.0390631,0.0396842,0.2179358,0.2722901|Pola
 r=79.2846601,6.4876328,87.9383121,-3.7756906,3.50679,24.9943712|PolarD
 eriv=-1.79913,-1.5397367,-0.7123107,-0.215826,-0.2352597,-0.0844848,-0
 .7766749,-1.1681262,-4.0404269,0.0834062,-0.0353893,-0.1464654,-0.1525
 786,-0.004173,0.5145571,-2.0203789,-3.8153827,-0.2982918,1.9674563,3.6
 386215,2.5502178,0.3565126,-0.1644425,-0.0314522,-0.5779991,1.9989547,
 1.6367569,0.1295229,0.2967721,-0.0369517,0.1477216,-0.3170153,0.638327
 9,1.5475267,-2.4447627,-0.5003219,-0.1545657,-0.2745241,3.0001676,0.11
 02335,0.1377363,0.3781355,-1.6112066,-4.0593052,-4.2181399,-0.4747245,
 -0.2823585,0.006946,0.680298,-0.2044603,-0.10073,2.5298847,-0.5622105,
 -0.4219967,1.4561025,1.7654476,5.5413288,-0.0122609,0.8101312,0.218472
 1,4.4662798,4.3333965,9.3796718,0.2666863,0.4759009,0.3957304,-0.40025
 89,0.0131456,-1.2980374,1.4458056,2.6830873,-0.612754,-0.9747496,-3.00
 13397,-5.3536291,-0.4760783,-0.1902247,-0.1769527,2.05653,-0.4408052,-
 3.0237285,-0.1043639,-0.5692974,0.2453349,0.0312064,0.5244855,0.563857
 3,-1.8725726,1.8108657,0.6246164,-0.111447,0.5852767,-1.4394179,-0.109
 4001,-0.1297748,-0.0534874,-1.3580522,2.2964229,5.6104154,0.5266957,0.
 4487693,-0.0363679,-0.3369656,0.4731893,0.7922789,-2.9066618,-0.095214
 6,0.4962523,-2.7087069,-3.1775074,-3.1103189,-0.106468,-0.0887916,-0.1
 850716,-1.8681195,-3.7803591,-9.1049348,-0.1141794,-0.2700444,-0.35355
 98,-0.0956745,-0.1748067,-0.3914154,-0.7512409,-1.4244997,-0.114323,2.
 8847014,-3.2461384,3.4240348,-0.3483788,0.3505232,0.2556081,-1.8656655
 ,3.7542092,-8.0003277,0.3066807,-0.709802,-0.3877001,-0.2950616,0.2760
 321,-0.6999957,0.9994591,-1.6022245,-0.4243003,10.2300271,-0.0171534,0
 .6399177,-0.4718536,-0.0120537,0.3710228,0.191858,1.4720742,-0.1730906
 ,-0.0582008,-0.145312,0.0486864,-0.5195581,-0.1092392,-0.2918084,1.804
 6596,0.028569,-0.1997434,-3.2899823,2.7851764,-2.8529071,0.4063288,-0.
 354025,-0.2023969,2.2400518,-3.4508418,6.6660487,-0.3946247,0.6367276,
 0.3826794,0.1706426,-0.3856505,0.2764317,-1.013514,1.5354271,0.4692858
 ,-11.4912756,-0.7539247,-0.3121959,0.6167036,0.0495205,-0.4309279,-0.2
 321737,-1.6149269,-0.1563568,0.0274998,0.1123351,-0.0065999,0.4928877,
 0.042116,-0.115719,-1.8487464,-0.0902137,0.2603117,-2.6494335,-2.03604
 38,-0.4020907,2.4439317,0.1543072,-0.271319,-2.0339995,-0.5619862,-6.0
 404,0.0526075,1.9724846,-0.2196189,3.0748868,0.5836292,3.143722,0.1478
 982,0.6535165,3.1615524,7.5802554,3.8307893,3.1335559,-1.7862521,-0.80
 35572,0.2388994,0.6571893,1.5690173,1.5644766,-0.1691577,-0.7161883,0.
 0471713,-2.6138744,-1.2523651,-0.9053194,2.2599197,1.2203874,-1.49146,
 -0.939252,1.4410569,-4.1063525,-0.4071924,0.4759108,-0.0260456,0.71198
 21,-0.3477243,9.9000358,-0.0778482,-1.2145977,0.0607155,-0.1836714,0.5
 351125,-2.1261496,-0.322039,2.1026555,-0.9488275|HyperPolar=1.0918509,
 -40.7808179,-109.7486599,-152.7786597,-17.02628,-15.5280132,-32.782253
 ,2.7421651,2.4177461,-2.2088557|Quadrupole=1.8483439,3.16842,-5.016763
 8,0.5490734,-1.6853159,-1.8029682|PG=C01 [X(C6H7N1)]|NImag=0||0.680458
 26,0.03745976,0.72738470,-0.03660080,0.04297560,0.12437449,-0.33707138
 ,-0.04416620,0.01626357,0.69422197,0.02113660,-0.12701977,-0.00685433,
 -0.02352025,0.71942948,0.02096863,-0.00200988,-0.05993086,-0.04174833,
 0.04606795,0.13677832,-0.02358152,-0.02941031,-0.00008613,-0.17659039,
 -0.12576703,-0.00026382,0.72745354,-0.07802805,0.02539239,0.00682457,-
 0.06251651,-0.30140629,-0.01421216,0.02809029,0.68244961,-0.00267985,0
 .00307337,0.00835395,0.00325882,-0.01048227,-0.05435691,-0.03968523,0.
 04132191,0.12346531,-0.05638855,0.03286159,0.00592261,0.07047852,0.028
 46016,-0.00286441,-0.18859113,0.04998600,0.01290467,0.69594129,0.03276
 547,-0.01118968,-0.00282518,-0.02073307,-0.05948387,-0.00248797,0.1193
 2869,-0.24700160,-0.02135103,0.00641811,0.70247167,0.00637852,-0.00195
 640,-0.00661430,-0.00573352,-0.00714158,0.00181300,0.01627504,-0.01616
 220,-0.06774016,-0.04099695,0.03258673,0.16638861,0.06000787,-0.020684
 70,-0.00511761,-0.04624418,-0.02429560,0.00107654,-0.02475496,0.062556
 58,0.00688927,-0.30830817,-0.03207901,0.01617293,0.67369017,0.02789719
 ,-0.05771107,-0.00692958,-0.03034341,-0.01942360,0.00125550,0.02392903
 ,0.03472984,-0.00003257,0.03715591,-0.12797136,-0.00783140,-0.00852788
 ,0.73562539,-0.00235391,-0.00285187,0.00786738,0.00106526,0.00108515,-
 0.00618294,0.00396075,-0.00272255,0.00813098,0.02005932,-0.00165926,-0
 .06707911,-0.03943620,0.04833552,0.12406480,-0.18391672,0.12590620,0.0
 1804757,-0.03325523,0.02452383,0.00483962,-0.00248112,0.00564935,0.000
 16966,-0.02182353,-0.03453599,-0.00173668,-0.17463069,-0.12427726,-0.0
 0099998,0.73673139,0.06058123,-0.27900717,-0.02088858,0.07588285,0.035
 74160,-0.00334018,-0.00031720,-0.06290342,-0.00358174,-0.08386110,0.03
 202870,0.00835040,-0.06125372,-0.30336179,-0.01544469,0.00530153,0.677
 46864,0.01347900,-0.02548027,-0.06113318,0.00832555,0.00045260,0.00676
 998,-0.00023596,-0.00450720,-0.00646509,-0.00397278,0.00489963,0.00260
 242,0.00361817,-0.00961986,-0.05434499,-0.04163775,0.04044124,0.136247
 21,-0.12063882,-0.11574495,-0.00231674,-0.00989428,-0.03022225,-0.0015
 3097,-0.00525052,0.00169654,0.00092827,-0.00103688,0.00093012,0.000091
 63,-0.00151744,0.00266936,0.00078745,0.01194761,0.01655306,0.00040614,
 0.12430988,-0.11574232,-0.27827159,-0.01049088,0.00161203,0.00251167,0
 .00002469,0.00011034,0.00152022,-0.00034976,0.00092775,0.00025041,-0.0
 0007357,0.00424678,-0.00218459,-0.00094280,-0.01528019,-0.01915743,-0.
 00039551,0.12503027,0.29456290,-0.00234730,-0.01054731,-0.03059667,0.0
 0084469,0.00227477,0.00050521,0.00088523,-0.00045091,0.00632728,0.0001
 0174,-0.00005271,-0.00034445,0.00087129,-0.00076380,0.00629985,-0.0019
 5843,-0.00262720,0.00033653,0.00231672,0.01155952,0.02428064,-0.011132
 16,0.02884470,0.00314624,-0.14072083,0.12447081,0.01696803,0.01145273,
 -0.01365353,-0.00172124,-0.00108901,-0.00330408,0.00019362,-0.00052863
 ,-0.00100586,-0.00002364,-0.00583968,-0.00202455,0.00073098,0.00108363
 ,-0.00039256,-0.00037292,0.14574574,-0.00234394,0.00495434,0.00033326,
 0.12409797,-0.25379957,-0.02526749,0.01736703,-0.01923001,-0.00290031,
 -0.00420753,-0.00248429,-0.00057055,-0.00089884,0.00009344,0.00010285,
 -0.00065096,0.00144222,-0.00035084,0.00043150,0.00078980,0.00032291,-0
 .13453581,0.26849076,0.00070306,-0.00184957,0.00240841,0.01701701,-0.0
 2535003,-0.03879160,0.00057296,-0.00055583,0.00209396,0.00037466,-0.00
 040619,0.00744752,-0.00008182,0.00010273,-0.00025473,0.00081976,-0.000
 28661,0.00656952,-0.00030766,0.00037381,-0.00369844,-0.01876565,0.0279
 2868,0.02892494,0.00139069,-0.00311704,0.00006651,-0.01166610,0.001716
 85,0.00093694,-0.33104307,-0.00850846,0.01938226,-0.01514016,-0.004985
 29,0.00089627,0.00052548,0.00345600,0.00058430,0.00068893,0.00032593,-
 0.00001607,-0.00069626,0.00011817,0.00012206,0.00098571,-0.00023558,-0
 .00033664,0.35376802,-0.00153520,-0.00476043,-0.00070065,-0.02992790,0
 .00374049,0.00217843,-0.00868128,-0.06050446,-0.00124568,0.02706922,0.
 00465481,-0.00186747,0.00204182,-0.00459103,-0.00089496,-0.00002068,-0
 .00150746,-0.00013684,-0.00158375,0.00003409,0.00005868,0.00042414,0.0
 0102793,0.00036274,0.01040532,0.05966728,0.00036977,-0.00060208,0.0068
 3062,-0.00119900,0.00005273,0.00096580,0.01871531,-0.00147609,-0.03263
 992,0.00366308,0.00034030,0.00306642,0.00033350,-0.00101392,0.00497426
 ,-0.00006259,0.00002551,-0.00005727,0.00001114,-0.00006025,0.00068509,
 -0.00032489,0.00040313,-0.00397752,-0.02109994,0.00164850,0.02414751,-
 0.00065787,-0.00293688,0.00041187,-0.00093708,-0.00112786,-0.00005462,
 -0.00557681,-0.00215477,0.00056079,-0.01208078,0.02924066,0.00322901,-
 0.13895528,0.12215431,0.01757254,0.01200139,-0.01369360,-0.00187895,0.
 00047777,-0.00077183,-0.00005405,0.00013335,0.00013001,-0.00006621,-0.
 00079087,0.00156501,0.00018340,0.14396201,-0.00453301,-0.00271995,-0.0
 0043740,-0.00081111,0.00011661,0.00006303,-0.00072410,0.00147924,-0.00
 022973,-0.00283955,0.00155002,0.00000870,0.12242362,-0.25057757,-0.025
 69488,0.01791318,-0.01977255,-0.00294200,0.00092853,-0.00113909,-0.000
 19100,0.00015769,-0.00003386,0.00007164,-0.00008284,0.00023780,-0.0000
 2510,-0.13256165,0.26728467,0.00017736,-0.00040378,0.00683759,0.000134
 23,0.00017403,-0.00005527,0.00073232,-0.00025857,0.00500623,0.00058155
 ,-0.00196493,0.00311250,0.01778315,-0.02634146,-0.03464685,0.00043758,
 -0.00047475,0.00081109,0.00006413,-0.00005800,0.00068473,-0.00008085,0
 .00007547,-0.00108154,0.00004454,-0.00013240,0.00022781,-0.01955586,0.
 02855339,0.02632898,-0.01259417,-0.00335797,0.00079509,0.00032927,0.00
 356732,0.00070126,0.00079084,-0.00000185,-0.00008255,0.00143375,-0.002
 46329,0.00023433,-0.01124457,0.00183900,0.00104195,-0.33532386,-0.0088
 2013,0.02001247,0.00089303,0.00029848,-0.00028972,-0.00079412,-0.00018
 704,0.00006147,-0.00010851,-0.00003503,-0.00006343,0.00095382,-0.00025
 252,-0.00035908,0.35665599,0.02783750,0.00641786,-0.00165214,0.0022003
 7,-0.00468157,-0.00100135,-0.00010135,-0.00121410,-0.00002926,-0.00162
 070,-0.00497574,-0.00102124,-0.02920962,0.00330778,0.00205013,-0.00843
 980,-0.06087555,-0.00119825,-0.00052565,0.00098119,0.00039502,0.001573
 57,0.00016366,-0.00012519,-0.00000846,0.00020631,0.00009542,0.00040243
 ,0.00105681,0.00035347,0.00954606,0.05937370,0.00319505,0.00045242,0.0
 0240983,0.00058216,-0.00112605,0.00652573,-0.00005828,-0.00009597,-0.0
 0026660,0.00034552,-0.00062890,0.00741604,-0.00112786,-0.00005574,0.00
 225086,0.01995058,-0.00114287,-0.03711699,-0.00035922,0.00033619,-0.00
 369986,0.00019063,-0.00000021,0.00028119,-0.00007273,0.00010985,-0.001
 07998,-0.00032705,0.00043422,-0.00397423,-0.02212758,0.00182713,0.0271
 3549,0.00347200,-0.00590873,-0.00064560,-0.00848660,0.00196747,0.00229
 373,0.01765886,0.01610739,0.00082513,-0.15919333,-0.07170625,-0.006395
 02,-0.03106232,-0.04894635,-0.00253889,-0.00284649,0.01048906,0.000804
 19,0.00032135,-0.00019597,-0.00017139,0.00080252,0.00115137,0.00001350
 ,0.00163332,0.00105969,-0.00127160,0.00198121,-0.00052554,0.00013375,-
 0.00090848,-0.00137442,-0.00012101,0.72083182,-0.00562226,-0.00415618,
 0.00034580,0.00656719,0.00524598,-0.00023274,-0.01652489,-0.05226267,-
 0.00491177,-0.07664472,-0.26107132,-0.02878133,-0.01616184,-0.00495504
 ,-0.00039461,0.00560044,-0.00026324,0.00033108,-0.00021642,0.00005362,
 -0.00011299,-0.00027701,-0.00107013,-0.00022439,-0.00071808,0.00231584
 ,0.00034591,0.00116929,0.00206088,-0.00061752,-0.00002044,0.00059032,-
 0.00008374,-0.06414957,0.66748878,-0.00201533,-0.00226733,-0.00091407,
 0.00121464,0.00253524,0.00488174,0.00085739,-0.00939993,0.00618193,0.0
 1730528,0.01641610,-0.04138134,-0.00330571,0.00269553,0.00758982,0.003
 26759,0.00020279,0.00475260,-0.00007341,0.00007433,-0.00058428,0.00019
 454,-0.00003833,0.00023305,-0.00007543,0.00001104,-0.00277247,-0.00066
 620,0.00047457,-0.00286552,0.00005429,0.00040999,0.00028349,-0.1223811
 6,-0.10542622,0.15428469,0.00070861,0.00048193,-0.00003258,-0.00089731
 ,-0.00060354,-0.00121620,0.00240209,0.00385530,-0.00065638,-0.01824885
 ,-0.00332190,0.00673382,0.00176190,-0.00325558,0.00060808,-0.00111970,
 0.00037294,-0.00015738,0.00003889,-0.00005886,0.00021809,0.00000586,0.
 00008264,0.00004604,0.00017636,-0.00057545,0.00091695,0.00032152,0.000
 05183,0.00014180,-0.00007541,-0.00028570,-0.00004039,-0.35666444,0.000
 58721,0.14954692,0.38659277,0.00040548,-0.00012718,0.00013716,-0.00003
 453,-0.00029474,-0.00018546,-0.00192622,0.00182559,-0.00026115,-0.0338
 7371,0.00201102,0.01556687,-0.00089822,-0.00613341,-0.00008816,-0.0014
 0068,0.00109902,-0.00038034,0.00012237,0.00000483,-0.00004586,0.000015
 49,0.00004779,-0.00000535,0.00154701,-0.00070929,0.00003058,-0.0002067
 3,0.00019435,0.00010044,-0.00018368,-0.00041321,-0.00005543,0.00172535
 ,-0.06868187,0.00995033,0.00656129,0.06743596,-0.00039219,0.00106851,0
 .00014128,0.00041640,0.00009669,-0.00043527,-0.00053177,0.00078843,-0.
 00006962,-0.01280609,-0.00797890,-0.00359660,0.00135079,-0.00058830,0.
 00158676,-0.00090310,-0.00151021,0.00159171,-0.00003255,0.00002000,-0.
 00011672,-0.00003281,0.00003907,-0.00000687,-0.00026152,0.00054047,0.0
 0020319,-0.00002115,-0.00004088,-0.00062499,-0.00003603,-0.00010449,-0
 .00015674,0.19446326,0.01576629,-0.08859846,-0.16668706,-0.00799152,0.
 08880940,-0.00005624,-0.00022740,0.00014602,0.00073362,-0.00030652,-0.
 00010641,-0.00188854,-0.00307828,-0.00009360,0.01404683,-0.01555418,0.
 00465699,0.00126082,-0.00274446,-0.00032702,-0.00013228,0.00046371,0.0
 0052239,-0.00003795,0.00009792,-0.00016601,-0.00010510,-0.00020084,-0.
 00005046,0.00027645,-0.00020589,-0.00017170,-0.00083238,0.00085545,-0.
 00023462,-0.00000758,0.00000577,-0.00002982,-0.18753944,0.16641110,-0.
 04392340,-0.01500229,0.02814679,-0.01452618,0.18928407,-0.00027845,0.0
 0081373,0.00016235,0.00169257,-0.00067643,-0.00085239,-0.00537299,-0.0
 0287434,0.00097998,0.02016858,-0.02878876,0.00889306,0.00274063,0.0031
 5301,-0.00087987,-0.00028897,-0.00093156,-0.00111344,-0.00006875,0.000
 04396,0.00018089,-0.00029301,-0.00039207,-0.00003644,0.00008647,0.0001
 8813,0.00023535,-0.00120840,0.00026264,0.00099461,0.00007110,0.0000625
 4,0.00002911,0.16030650,-0.28529496,0.08436189,-0.00389211,0.00374115,
 -0.00010515,-0.17366317,0.31069296,0.00111799,0.00039860,-0.00003446,-
 0.00044147,-0.00178491,0.00151307,-0.00113780,0.00090650,0.00197868,-0
 .00061820,-0.01488769,-0.00509055,0.00097357,0.00078736,-0.00025607,-0
 .00023384,0.00027689,-0.00056353,0.00001510,-0.00001777,-0.00007890,-0
 .00010207,-0.00007764,-0.00014790,-0.00017054,0.00006828,-0.00057353,0
 .00066650,-0.00004456,0.00023946,0.00005752,0.00000077,-0.00000823,-0.
 06500889,0.12399623,-0.04109117,0.01057829,-0.01677212,0.00127294,0.05
 430384,-0.09284994,0.04284020||0.00000095,0.00003310,-0.00000152,0.000
 00143,-0.00001009,0.00000518,0.00000606,0.00004314,0.00000599,-0.00002
 765,-0.00005614,-0.00002348,0.00004046,0.00003610,-0.00000038,-0.00000
 079,-0.00002260,-0.00000013,0.00000061,-0.00001410,-0.00000191,-0.0000
 0267,-0.00001043,0.00000067,0.00000128,-0.00000505,-0.00000092,-0.0000
 0621,0.00000155,0.00000689,-0.00000521,0.00000143,-0.00000036,0.000005
 14,0.00001986,0.00001012,-0.00000107,-0.00001656,-0.00000021,-0.000012
 35,-0.00000021,0.00000006|||@


 NOT WHAT WE DID SHALL BE THE TEST
 WHEN ACT AND WILL ARE DONE,
 BUT WHAT OUR LORD INFERS WE WOULD-
 HAD WE DIVINER BEEN.
           EMILY DICKINSON  POEMS NO. CLXXV
 Job cpu time:       0 days  0 hours  1 minutes 42.0 seconds.
 Elapsed time:       0 days  0 hours  1 minutes 40.5 seconds.
 File lengths (MBytes):  RWF=     29 Int=      0 D2E=      0 Chk=      2 Scr=      1
 Normal termination of Gaussian 16 at Wed Jul 12 19:44:21 2023.
