 Entering Gaussian System, Link 0=g16
 Initial command:
 /kimariyb/g16/l1.exe "/kimariyb/g16/scratch/Gau-42511.inp" -scrdir="/kimariyb/g16/scratch/"
 Default is to use a total of  10 processors:
                               10 via shared-memory
                                1 via Linda
 Entering Link 1 = /kimariyb/g16/l1.exe PID=     42512.
  
 Copyright (c) 1988-2019, Gaussian, Inc.  All Rights Reserved.
  
 This is part of the Gaussian(R) 16 program.  It is based on
 the Gaussian(R) 09 system (copyright 2009, Gaussian, Inc.),
 the Gaussian(R) 03 system (copyright 2003, Gaussian, Inc.),
 the Gaussian(R) 98 system (copyright 1998, Gaussian, Inc.),
 the Gaussian(R) 94 system (copyright 1995, Gaussian, Inc.),
 the Gaussian 92(TM) system (copyright 1992, Gaussian, Inc.),
 the Gaussian 90(TM) system (copyright 1990, Gaussian, Inc.),
 the Gaussian 88(TM) system (copyright 1988, Gaussian, Inc.),
 the Gaussian 86(TM) system (copyright 1986, Carnegie Mellon
 University), and the Gaussian 82(TM) system (copyright 1983,
 Carnegie Mellon University). Gaussian is a federally registered
 trademark of Gaussian, Inc.
  
 This software contains proprietary and confidential information,
 including trade secrets, belonging to Gaussian, Inc.
  
 This software is provided under written license and may be
 used, copied, transmitted, or stored only in accord with that
 written license.
  
 The following legend is applicable only to US Government
 contracts under FAR:
  
                    RESTRICTED RIGHTS LEGEND
  
 Use, reproduction and disclosure by the US Government is
 subject to restrictions as set forth in subparagraphs (a)
 and (c) of the Commercial Computer Software - Restricted
 Rights clause in FAR 52.227-19.
  
 Gaussian, Inc.
 340 Quinnipiac St., Bldg. 40, Wallingford CT 06492
  
  
 ---------------------------------------------------------------
 Warning -- This program may not be used in any manner that
 competes with the business of Gaussian, Inc. or will provide
 assistance to any competitor of Gaussian, Inc.  The licensee
 of this program is prohibited from giving any competitor of
 Gaussian, Inc. access to this program.  By using this program,
 the user acknowledges that Gaussian, Inc. is engaged in the
 business of creating and licensing software in the field of
 computational chemistry and represents and warrants to the
 licensee that it is not a competitor of Gaussian, Inc. and that
 it will not use this program in any manner prohibited above.
 ---------------------------------------------------------------
  

 Cite this work as:
 Gaussian 16, Revision C.01,
 M. J. Frisch, G. W. Trucks, H. B. Schlegel, G. E. Scuseria, 
 M. A. Robb, J. R. Cheeseman, G. Scalmani, V. Barone, 
 G. A. Petersson, H. Nakatsuji, X. Li, M. Caricato, A. V. Marenich, 
 J. Bloino, B. G. Janesko, R. Gomperts, B. Mennucci, H. P. Hratchian, 
 J. V. Ortiz, A. F. Izmaylov, J. L. Sonnenberg, D. Williams-Young, 
 F. Ding, F. Lipparini, F. Egidi, J. Goings, B. Peng, A. Petrone, 
 T. Henderson, D. Ranasinghe, V. G. Zakrzewski, J. Gao, N. Rega, 
 G. Zheng, W. Liang, M. Hada, M. Ehara, K. Toyota, R. Fukuda, 
 J. Hasegawa, M. Ishida, T. Nakajima, Y. Honda, O. Kitao, H. Nakai, 
 T. Vreven, K. Throssell, J. A. Montgomery, Jr., J. E. Peralta, 
 F. Ogliaro, M. J. Bearpark, J. J. Heyd, E. N. Brothers, K. N. Kudin, 
 V. N. Staroverov, T. A. Keith, R. Kobayashi, J. Normand, 
 K. Raghavachari, A. P. Rendell, J. C. Burant, S. S. Iyengar, 
 J. Tomasi, M. Cossi, J. M. Millam, M. Klene, C. Adamo, R. Cammi, 
 J. W. Ochterski, R. L. Martin, K. Morokuma, O. Farkas, 
 J. B. Foresman, and D. J. Fox, Gaussian, Inc., Wallingford CT, 2019.
 
 ******************************************
 Gaussian 16:  ES64L-G16RevC.01  3-Jul-2019
                 3-Aug-2023 
 ******************************************
 --------------------------------------------
 # opt freq b3lyp/6-311g** scrf(solvent=CCl4)
 --------------------------------------------
 1/18=20,19=15,26=3,38=1/1,3;
 2/9=110,12=2,17=6,18=5,40=1/2;
 3/5=4,6=6,7=101,11=2,25=1,30=1,70=2201,71=1,72=11,74=-5/1,2,3;
 4//1;
 5/5=2,38=5,53=11/2;
 6/7=2,8=2,9=2,10=2,28=1/1;
 7//1,2,3,16;
 1/18=20,19=15,26=3/3(2);
 2/9=110/2;
 99//99;
 2/9=110/2;
 3/5=4,6=6,7=101,11=2,25=1,30=1,70=2205,71=1,72=11,74=-5/1,2,3;
 4/5=5,16=3,69=1/1;
 5/5=2,38=5,53=11/2;
 7//1,2,3,16;
 1/18=20,19=15,26=3/3(-5);
 2/9=110/2;
 6/7=2,8=2,9=2,10=2,19=2,28=1/1;
 99/9=1/99;
 -------------------
 Title Card Required
 -------------------
 Symbolic Z-matrix:
 Charge =  0 Multiplicity = 1
 C                    -2.27637   0.2461    0.05216 
 H                    -1.94213  -0.75842  -0.10313 
 H                    -1.99306   0.56877   1.03222 
 H                    -3.34141   0.28628  -0.04259 
 C                    -1.63234   1.16962  -0.99851 
 O                    -2.32508   2.33884  -1.44341 
 C                    -0.24227   0.83399  -1.57006 
 H                     0.40363   0.52111  -0.77645 
 H                    -0.33266   0.04585  -2.28809 
 H                     0.16804   1.7018   -2.04276 
 

 GradGradGradGradGradGradGradGradGradGradGradGradGradGradGradGradGradGrad
 Berny optimization.
 Initialization pass.
                           ----------------------------
                           !    Initial Parameters    !
                           ! (Angstroms and Degrees)  !
 --------------------------                            --------------------------
 ! Name  Definition              Value          Derivative Info.                !
 --------------------------------------------------------------------------------
 ! R1    R(1,2)                  1.07           estimate D2E/DX2                !
 ! R2    R(1,3)                  1.07           estimate D2E/DX2                !
 ! R3    R(1,4)                  1.07           estimate D2E/DX2                !
 ! R4    R(1,5)                  1.54           estimate D2E/DX2                !
 ! R5    R(5,6)                  1.43           estimate D2E/DX2                !
 ! R6    R(5,7)                  1.54           estimate D2E/DX2                !
 ! R7    R(7,8)                  1.07           estimate D2E/DX2                !
 ! R8    R(7,9)                  1.07           estimate D2E/DX2                !
 ! R9    R(7,10)                 1.07           estimate D2E/DX2                !
 ! A1    A(2,1,3)              109.4712         estimate D2E/DX2                !
 ! A2    A(2,1,4)              109.4712         estimate D2E/DX2                !
 ! A3    A(2,1,5)              109.4712         estimate D2E/DX2                !
 ! A4    A(3,1,4)              109.4712         estimate D2E/DX2                !
 ! A5    A(3,1,5)              109.4712         estimate D2E/DX2                !
 ! A6    A(4,1,5)              109.4712         estimate D2E/DX2                !
 ! A7    A(1,5,6)              120.0            estimate D2E/DX2                !
 ! A8    A(1,5,7)              120.0            estimate D2E/DX2                !
 ! A9    A(6,5,7)              120.0            estimate D2E/DX2                !
 ! A10   A(5,7,8)              109.4712         estimate D2E/DX2                !
 ! A11   A(5,7,9)              109.4712         estimate D2E/DX2                !
 ! A12   A(5,7,10)             109.4712         estimate D2E/DX2                !
 ! A13   A(8,7,9)              109.4713         estimate D2E/DX2                !
 ! A14   A(8,7,10)             109.4712         estimate D2E/DX2                !
 ! A15   A(9,7,10)             109.4712         estimate D2E/DX2                !
 ! D1    D(2,1,5,6)            150.0            estimate D2E/DX2                !
 ! D2    D(2,1,5,7)            -30.0            estimate D2E/DX2                !
 ! D3    D(3,1,5,6)            -90.0            estimate D2E/DX2                !
 ! D4    D(3,1,5,7)             90.0            estimate D2E/DX2                !
 ! D5    D(4,1,5,6)             30.0            estimate D2E/DX2                !
 ! D6    D(4,1,5,7)           -150.0            estimate D2E/DX2                !
 ! D7    D(1,5,7,8)            -43.1595         estimate D2E/DX2                !
 ! D8    D(1,5,7,9)             76.8406         estimate D2E/DX2                !
 ! D9    D(1,5,7,10)          -163.1595         estimate D2E/DX2                !
 ! D10   D(6,5,7,8)            136.8405         estimate D2E/DX2                !
 ! D11   D(6,5,7,9)           -103.1594         estimate D2E/DX2                !
 ! D12   D(6,5,7,10)            16.8405         estimate D2E/DX2                !
 --------------------------------------------------------------------------------
 Trust Radius=3.00D-01 FncErr=1.00D-07 GrdErr=1.00D-06 EigMax=2.50D+02 EigMin=1.00D-04
 Number of steps in this run=     46 maximum allowed number of steps=    100.
 GradGradGradGradGradGradGradGradGradGradGradGradGradGradGradGradGradGrad

                          Input orientation:                          
 ---------------------------------------------------------------------
 Center     Atomic      Atomic             Coordinates (Angstroms)
 Number     Number       Type             X           Y           Z
 ---------------------------------------------------------------------
      1          6           0       -2.276375    0.246097    0.052161
      2          1           0       -1.942128   -0.758424   -0.103135
      3          1           0       -1.993064    0.568767    1.032222
      4          1           0       -3.341414    0.286277   -0.042589
      5          6           0       -1.632337    1.169622   -0.998512
      6          8           0       -2.325076    2.338843   -1.443413
      7          6           0       -0.242272    0.833987   -1.570063
      8          1           0        0.403629    0.521114   -0.776450
      9          1           0       -0.332664    0.045848   -2.288092
     10          1           0        0.168042    1.701799   -2.042763
 ---------------------------------------------------------------------
                    Distance matrix (angstroms):
                    1          2          3          4          5
     1  C    0.000000
     2  H    1.070000   0.000000
     3  H    1.070000   1.747303   0.000000
     4  H    1.070000   1.747303   1.747303   0.000000
     5  C    1.540000   2.148263   2.148263   2.148263   0.000000
     6  O    2.572683   3.396477   3.061399   2.684824   1.430000
     7  C    2.667358   2.752664   3.147618   3.498263   1.540000
     8  H    2.818626   2.755566   3.002949   3.823486   2.148263
     9  H    3.048753   2.830417   3.748981   3.762002   2.148263
    10  H    3.533122   3.777257   3.925515   4.280266   2.148263
                    6          7          8          9         10
     6  O    0.000000
     7  C    2.572683   0.000000
     8  H    3.345864   1.070000   0.000000
     9  H    3.152937   1.070000   1.747303   0.000000
    10  H    2.642098   1.070000   1.747303   1.747303   0.000000
 Stoichiometry    C3H6O
 Framework group  C1[X(C3H6O)]
 Deg. of freedom    24
 Full point group                 C1      NOp   1
 Largest Abelian subgroup         C1      NOp   1
 Largest concise Abelian subgroup C1      NOp   1
                         Standard orientation:                         
 ---------------------------------------------------------------------
 Center     Atomic      Atomic             Coordinates (Angstroms)
 Number     Number       Type             X           Y           Z
 ---------------------------------------------------------------------
      1          6           0       -1.333679   -0.660937    0.000000
      2          1           0       -1.205736   -1.595875   -0.504403
      3          1           0       -1.642562   -0.839271    1.008806
      4          1           0       -2.079387   -0.082666   -0.504403
      5          6           0        0.000000    0.109062    0.000000
      6          8           0        0.000000    1.539062    0.000000
      7          6           0        1.333679   -0.660938    0.000000
      8          1           0        1.274623   -1.476558    0.690055
      9          1           0        1.527728   -1.038168   -0.982315
     10          1           0        2.125333   -0.003087    0.292260
 ---------------------------------------------------------------------
 Rotational constants (GHZ):           8.7542598           8.0410704           4.4166719
 Standard basis: 6-311G(d,p) (5D, 7F)
 There are   112 symmetry adapted cartesian basis functions of A   symmetry.
 There are   108 symmetry adapted basis functions of A   symmetry.
   108 basis functions,   176 primitive gaussians,   112 cartesian basis functions
    16 alpha electrons       16 beta electrons
       nuclear repulsion energy       113.8073160455 Hartrees.
 NAtoms=   10 NActive=   10 NUniq=   10 SFac= 1.00D+00 NAtFMM=   60 NAOKFM=F Big=F
 Integral buffers will be    131072 words long.
 Raffenetti 2 integral format.
 Two-electron integral symmetry is turned on.
 ------------------------------------------------------------------------------
 Polarizable Continuum Model (PCM)
 =================================
 Model                : PCM.
 Atomic radii         : UFF (Universal Force Field).
 Polarization charges : Total charges.
 Charge compensation  : None.
 Solution method      : On-the-fly selection.
 Cavity type          : Scaled VdW (van der Waals Surface) (Alpha=1.100).
 Cavity algorithm     : GePol (No added spheres)
                        Default sphere list used, NSphG=   10.
                        Lebedev-Laikov grids with approx.  5.0 points / Ang**2.
                        Smoothing algorithm: York/Karplus (Gamma=1.0000).
                        Polarization charges: spherical gaussians, with
                                              point-specific exponents (IZeta= 3).
                        Self-potential: point-specific (ISelfS= 7).
                        Self-field    : sphere-specific E.n sum rule (ISelfD= 2).
 1st derivatives      : Analytical E(r).r(x)/FMM algorithm (CHGder, D1EAlg=3).
                        Cavity 1st derivative terms included.
 Solvent              : CarbonTetraChloride, Eps=   2.228000 Eps(inf)=   2.131892
 ------------------------------------------------------------------------------
 Spheres list:
 ISph  on   Nord     Re0    Alpha      Xe            Ye            Ze
    1   C      1    1.9255  1.100     -1.333679     -0.660937      0.000000
    2   H      2    1.4430  1.100     -1.205736     -1.595875     -0.504403
    3   H      3    1.4430  1.100     -1.642562     -0.839271      1.008806
    4   H      4    1.4430  1.100     -2.079387     -0.082666     -0.504403
    5   C      5    1.9255  1.100      0.000000      0.109062     -0.000000
    6   O      6    1.7500  1.100      0.000000      1.539062      0.000000
    7   C      7    1.9255  1.100      1.333679     -0.660938     -0.000000
    8   H      8    1.4430  1.100      1.274623     -1.476558      0.690055
    9   H      9    1.4430  1.100      1.527728     -1.038168     -0.982315
   10   H     10    1.4430  1.100      2.125333     -0.003087      0.292260
 ------------------------------------------------------------------------------
 One-electron integrals computed using PRISM.
 NBasis=   108 RedAO= T EigKep=  3.03D-03  NBF=   108
 NBsUse=   108 1.00D-06 EigRej= -1.00D+00 NBFU=   108
 ExpMin= 1.03D-01 ExpMax= 8.59D+03 ExpMxC= 1.30D+03 IAcc=3 IRadAn=         5 AccDes= 0.00D+00
 Harris functional with IExCor=  402 and IRadAn=       5 diagonalized for initial guess.
 HarFok:  IExCor=  402 AccDes= 0.00D+00 IRadAn=         5 IDoV= 1 UseB2=F ITyADJ=14
 ICtDFT=  3500011 ScaDFX=  1.000000  1.000000  1.000000  1.000000
 FoFCou: FMM=F IPFlag=           0 FMFlag=      100000 FMFlg1=           0
         NFxFlg=           0 DoJE=T BraDBF=F KetDBF=T FulRan=T
         wScrn=  0.000000 ICntrl=       500 IOpCl=  0 I1Cent=   200000004 NGrid=           0
         NMat0=    1 NMatS0=      1 NMatT0=    0 NMatD0=    1 NMtDS0=    0 NMtDT0=    0
 Petite list used in FoFCou.
 Keep R1 ints in memory in canonical form, NReq=26716915.
 Requested convergence on RMS density matrix=1.00D-08 within 128 cycles.
 Requested convergence on MAX density matrix=1.00D-06.
 Requested convergence on             energy=1.00D-06.
 No special actions if energy rises.
 Inv3:  Mode=1 IEnd=     2656443.
 Iteration    1 A*A^-1 deviation from unit magnitude is 5.11D-15 for    934.
 Iteration    1 A*A^-1 deviation from orthogonality  is 1.93D-15 for    708     65.
 Iteration    1 A^-1*A deviation from unit magnitude is 5.11D-15 for    934.
 Iteration    1 A^-1*A deviation from orthogonality  is 1.27D-15 for    844    396.
 Error on total polarization charges =  0.00442
 SCF Done:  E(RB3LYP) =  -193.167290073     A.U. after   12 cycles
            NFock= 12  Conv=0.29D-08     -V/T= 2.0060

 **********************************************************************

            Population analysis using the SCF Density.

 **********************************************************************

 Orbital symmetries:
       Occupied  (A) (A) (A) (A) (A) (A) (A) (A) (A) (A) (A) (A)
                 (A) (A) (A) (A)
       Virtual   (A) (A) (A) (A) (A) (A) (A) (A) (A) (A) (A) (A)
                 (A) (A) (A) (A) (A) (A) (A) (A) (A) (A) (A) (A)
                 (A) (A) (A) (A) (A) (A) (A) (A) (A) (A) (A) (A)
                 (A) (A) (A) (A) (A) (A) (A) (A) (A) (A) (A) (A)
                 (A) (A) (A) (A) (A) (A) (A) (A) (A) (A) (A) (A)
                 (A) (A) (A) (A) (A) (A) (A) (A) (A) (A) (A) (A)
                 (A) (A) (A) (A) (A) (A) (A) (A) (A) (A) (A) (A)
                 (A) (A) (A) (A) (A) (A) (A) (A)
 The electronic state is 1-A.
 Alpha  occ. eigenvalues --  -19.10868 -10.29105 -10.18317 -10.18304  -0.94476
 Alpha  occ. eigenvalues --   -0.78040  -0.72546  -0.54978  -0.46202  -0.45737
 Alpha  occ. eigenvalues --   -0.44718  -0.42555  -0.38951  -0.37442  -0.30853
 Alpha  occ. eigenvalues --   -0.25266
 Alpha virt. eigenvalues --   -0.06503   0.03837   0.08477   0.10290   0.10539
 Alpha virt. eigenvalues --    0.11440   0.12339   0.14759   0.19786   0.23108
 Alpha virt. eigenvalues --    0.29908   0.30870   0.32793   0.34835   0.42112
 Alpha virt. eigenvalues --    0.44048   0.46463   0.48457   0.55022   0.55713
 Alpha virt. eigenvalues --    0.57756   0.58062   0.58457   0.58682   0.63939
 Alpha virt. eigenvalues --    0.65984   0.74730   0.81106   0.85463   0.87970
 Alpha virt. eigenvalues --    0.95170   0.97542   1.10389   1.16688   1.24657
 Alpha virt. eigenvalues --    1.38363   1.39482   1.42177   1.43685   1.44335
 Alpha virt. eigenvalues --    1.45659   1.47966   1.49692   1.50825   1.51812
 Alpha virt. eigenvalues --    1.57319   1.64718   1.68109   1.74813   1.77409
 Alpha virt. eigenvalues --    1.84425   1.88531   1.92199   2.00296   2.03737
 Alpha virt. eigenvalues --    2.15570   2.22216   2.27815   2.34321   2.39169
 Alpha virt. eigenvalues --    2.40916   2.41607   2.44318   2.47052   2.49766
 Alpha virt. eigenvalues --    2.50731   2.52897   2.57256   2.61912   2.72644
 Alpha virt. eigenvalues --    2.75623   2.80163   2.86166   2.88032   2.94229
 Alpha virt. eigenvalues --    2.95762   3.12235   3.21502   3.39307   3.80489
 Alpha virt. eigenvalues --    3.80864   3.82902   3.85246   3.98055   4.19297
 Alpha virt. eigenvalues --    4.84089   4.92779   5.32255  23.49864  23.92658
 Alpha virt. eigenvalues --   23.94934  49.84052
          Condensed to atoms (all electrons):
               1          2          3          4          5          6
     1  C    4.992673   0.381280   0.387847   0.385838   0.278351  -0.068943
     2  H    0.381280   0.561942  -0.021765  -0.024449  -0.027561   0.003155
     3  H    0.387847  -0.021765   0.513529  -0.012563  -0.019804   0.000322
     4  H    0.385838  -0.024449  -0.012563   0.513706  -0.024079   0.007586
     5  C    0.278351  -0.027561  -0.019804  -0.024079   4.914893   0.519032
     6  O   -0.068943   0.003155   0.000322   0.007586   0.519032   8.024149
     7  C   -0.087521   0.002403   0.001341   0.008348   0.287499  -0.070673
     8  H    0.002519  -0.001326   0.000148  -0.000140  -0.027990   0.002565
     9  H    0.000336   0.000673   0.000223  -0.000767  -0.020487   0.000752
    10  H    0.009360  -0.000372  -0.000603  -0.000474  -0.026093   0.009776
               7          8          9         10
     1  C   -0.087521   0.002519   0.000336   0.009360
     2  H    0.002403  -0.001326   0.000673  -0.000372
     3  H    0.001341   0.000148   0.000223  -0.000603
     4  H    0.008348  -0.000140  -0.000767  -0.000474
     5  C    0.287499  -0.027990  -0.020487  -0.026093
     6  O   -0.070673   0.002565   0.000752   0.009776
     7  C    4.991901   0.383058   0.385497   0.383194
     8  H    0.383058   0.553783  -0.021358  -0.023136
     9  H    0.385497  -0.021358   0.522746  -0.015268
    10  H    0.383194  -0.023136  -0.015268   0.519206
 Mulliken charges:
               1
     1  C   -0.281741
     2  H    0.126019
     3  H    0.151324
     4  H    0.146992
     5  C    0.146237
     6  O   -0.427721
     7  C   -0.285048
     8  H    0.131875
     9  H    0.147651
    10  H    0.144410
 Sum of Mulliken charges =  -0.00000
 Mulliken charges with hydrogens summed into heavy atoms:
               1
     1  C    0.142595
     5  C    0.146237
     6  O   -0.427721
     7  C    0.138889
 Electronic spatial extent (au):  <R**2>=            314.5900
 Charge=             -0.0000 electrons
 Dipole moment (field-independent basis, Debye):
    X=             -0.0319    Y=             -4.2011    Z=              0.0146  Tot=              4.2013
 Quadrupole moment (field-independent basis, Debye-Ang):
   XX=            -22.5660   YY=            -29.8998   ZZ=            -24.2230
   XY=             -0.0412   XZ=             -0.2071   YZ=             -0.0139
 Traceless Quadrupole moment (field-independent basis, Debye-Ang):
   XX=              2.9969   YY=             -4.3369   ZZ=              1.3399
   XY=             -0.0412   XZ=             -0.2071   YZ=             -0.0139
 Octapole moment (field-independent basis, Debye-Ang**2):
  XXX=             -0.1947  YYY=             -6.2726  ZZZ=              0.1856  XYY=              0.2140
  XXY=              0.2221  XXZ=             -0.0031  XZZ=             -0.2791  YZZ=             -0.0393
  YYZ=             -0.0875  XYZ=              0.7108
 Hexadecapole moment (field-independent basis, Debye-Ang**3):
 XXXX=           -201.0616 YYYY=           -171.4502 ZZZZ=            -36.0911 XXXY=              0.4041
 XXXZ=              0.9632 YYYX=             -0.1295 YYYZ=              0.2790 ZZZX=             -2.5794
 ZZZY=             -0.1588 XXYY=            -62.2797 XXZZ=            -38.5572 YYZZ=            -31.3219
 XXYZ=             -0.2517 YYXZ=              0.3051 ZZXY=             -0.4759
 N-N= 1.138073160455D+02 E-N=-6.785160098629D+02  KE= 1.920230326935D+02
 D1PCM: PCM CHGder 1st derivatives, ID1Alg=3 FixD1E=F DoIter=F DoCFld=F I1PDM=0.
 Calling FoFJK, ICntrl=      2127 FMM=F ISym2X=0 I1Cent= 0 IOpClX= 0 NMat=1 NMatS=1 NMatT=0.
 ***** Axes restored to original set *****
 -------------------------------------------------------------------
 Center     Atomic                   Forces (Hartrees/Bohr)
 Number     Number              X              Y              Z
 -------------------------------------------------------------------
      1        6           0.010972812    0.020484431   -0.032875426
      2        1           0.005968995   -0.014678678    0.000246958
      3        1           0.005259663    0.005113998    0.014711788
      4        1          -0.013295163    0.003097693   -0.000035374
      5        6          -0.069320403    0.117856486   -0.045135454
      6        8           0.082524019   -0.139551917    0.053170674
      7        6          -0.033151489    0.018201838    0.015563402
      8        1           0.009493078   -0.007585821    0.011091219
      9        1          -0.001795676   -0.013537009   -0.009756902
     10        1           0.003344163    0.010598979   -0.006980885
 -------------------------------------------------------------------
 Cartesian Forces:  Max     0.139551917 RMS     0.042649923

 GradGradGradGradGradGradGradGradGradGradGradGradGradGradGradGradGradGrad
 Berny optimization.
 FormGI is forming the generalized inverse of G from B-inverse, IUseBI=4.
 Internal  Forces:  Max     0.170622522 RMS     0.029726504
 Search for a local minimum.
 Step number   1 out of a maximum of   46
 All quantities printed in internal units (Hartrees-Bohrs-Radians)
 Mixed Optimization -- RFO/linear search
 Second derivative matrix not updated -- first step.
 ITU=  0
     Eigenvalues ---    0.00237   0.00237   0.00237   0.07243   0.07243
     Eigenvalues ---    0.07243   0.07243   0.16000   0.16000   0.16000
     Eigenvalues ---    0.16000   0.16000   0.16000   0.25000   0.25000
     Eigenvalues ---    0.28519   0.28519   0.37230   0.37230   0.37230
     Eigenvalues ---    0.37230   0.37230   0.37230   0.40989
 RFO step:  Lambda=-6.79594438D-02 EMin= 2.36824193D-03
 Linear search not attempted -- first point.
 Maximum step size (   0.300) exceeded in Quadratic search.
    -- Step size scaled by   0.786
 Iteration  1 RMS(Cart)=  0.04285918 RMS(Int)=  0.01342046
 Iteration  2 RMS(Cart)=  0.01271013 RMS(Int)=  0.00001825
 Iteration  3 RMS(Cart)=  0.00000090 RMS(Int)=  0.00001824
 Variable       Old X    -DE/DX   Delta X   Delta X   Delta X     New X
                                 (Linear)    (Quad)   (Total)
    R1        2.02201   0.01561   0.00000   0.02785   0.02785   2.04986
    R2        2.02201   0.01641   0.00000   0.02928   0.02928   2.05129
    R3        2.02201   0.01335   0.00000   0.02383   0.02383   2.04584
    R4        2.91018  -0.02438   0.00000  -0.05424  -0.05424   2.85594
    R5        2.70231  -0.17062   0.00000  -0.28052  -0.28052   2.42179
    R6        2.91018  -0.02531   0.00000  -0.05630  -0.05630   2.85387
    R7        2.02201   0.01618   0.00000   0.02887   0.02887   2.05087
    R8        2.02201   0.01667   0.00000   0.02975   0.02975   2.05175
    R9        2.02201   0.01296   0.00000   0.02313   0.02313   2.04514
    A1        1.91063  -0.00131   0.00000  -0.00619  -0.00617   1.90447
    A2        1.91063   0.00154   0.00000   0.00960   0.00955   1.92018
    A3        1.91063   0.00284   0.00000   0.01109   0.01108   1.92171
    A4        1.91063  -0.00001   0.00000  -0.00266  -0.00271   1.90793
    A5        1.91063  -0.00215   0.00000  -0.00957  -0.00958   1.90105
    A6        1.91063  -0.00090   0.00000  -0.00227  -0.00232   1.90832
    A7        2.09440  -0.00192   0.00000  -0.00474  -0.00474   2.08966
    A8        2.09440   0.00340   0.00000   0.00840   0.00840   2.10280
    A9        2.09440  -0.00148   0.00000  -0.00367  -0.00367   2.09073
   A10        1.91063   0.00160   0.00000   0.00590   0.00588   1.91652
   A11        1.91063  -0.00171   0.00000  -0.00775  -0.00775   1.90288
   A12        1.91063  -0.00087   0.00000  -0.00152  -0.00154   1.90909
   A13        1.91063  -0.00166   0.00000  -0.00866  -0.00866   1.90198
   A14        1.91063   0.00179   0.00000   0.00989   0.00987   1.92050
   A15        1.91063   0.00084   0.00000   0.00213   0.00212   1.91275
    D1        2.61799   0.00115   0.00000   0.00498   0.00501   2.62300
    D2       -0.52360   0.00106   0.00000   0.00389   0.00392  -0.51968
    D3       -1.57080  -0.00003   0.00000  -0.00167  -0.00169  -1.57249
    D4        1.57080  -0.00013   0.00000  -0.00276  -0.00279   1.56801
    D5        0.52360  -0.00191   0.00000  -0.01218  -0.01218   0.51142
    D6       -2.61799  -0.00201   0.00000  -0.01327  -0.01327  -2.63126
    D7       -0.75327   0.00142   0.00000   0.00706   0.00707  -0.74621
    D8        1.34112  -0.00068   0.00000  -0.00468  -0.00468   1.33644
    D9       -2.84767  -0.00122   0.00000  -0.00774  -0.00774  -2.85541
   D10        2.38832   0.00132   0.00000   0.00596   0.00597   2.39429
   D11       -1.80047  -0.00077   0.00000  -0.00577  -0.00578  -1.80625
   D12        0.29392  -0.00132   0.00000  -0.00883  -0.00884   0.28509
         Item               Value     Threshold  Converged?
 Maximum Force            0.170623     0.000450     NO 
 RMS     Force            0.029727     0.000300     NO 
 Maximum Displacement     0.230826     0.001800     NO 
 RMS     Displacement     0.054171     0.001200     NO 
 Predicted change in Energy=-3.549836D-02
 GradGradGradGradGradGradGradGradGradGradGradGradGradGradGradGradGradGrad

                          Input orientation:                          
 ---------------------------------------------------------------------
 Center     Atomic      Atomic             Coordinates (Angstroms)
 Number     Number       Type             X           Y           Z
 ---------------------------------------------------------------------
      1          6           0       -2.270068    0.263040    0.028119
      2          1           0       -1.934962   -0.758533   -0.115939
      3          1           0       -1.979657    0.595978    1.019638
      4          1           0       -3.347216    0.316548   -0.066403
      5          6           0       -1.631883    1.168948   -0.999536
      6          8           0       -2.253839    2.216695   -1.396759
      7          6           0       -0.266589    0.849093   -1.560235
      8          1           0        0.392320    0.524598   -0.761258
      9          1           0       -0.361203    0.048094   -2.287067
     10          1           0        0.139437    1.729471   -2.041192
 ---------------------------------------------------------------------
                    Distance matrix (angstroms):
                    1          2          3          4          5
     1  C    0.000000
     2  H    1.084740   0.000000
     3  H    1.085494   1.768116   0.000000
     4  H    1.082611   1.775589   1.768554   0.000000
     5  C    1.511299   2.141911   2.127512   2.130655   0.000000
     6  O    2.418121   3.254868   2.922477   2.564348   1.281557
     7  C    2.623024   2.730187   3.107155   3.464882   1.510205
     8  H    2.789236   2.734795   2.966978   3.809231   2.137607
     9  H    3.008330   2.800207   3.722078   3.730910   2.128068
    10  H    3.498312   3.768275   3.891535   4.248870   2.129979
                    6          7          8          9         10
     6  O    0.000000
     7  C    2.417897   0.000000
     8  H    3.204561   1.085275   0.000000
     9  H    3.012896   1.085741   1.767185   0.000000
    10  H    2.525955   1.082240   1.775922   1.771475   0.000000
 Stoichiometry    C3H6O
 Framework group  C1[X(C3H6O)]
 Deg. of freedom    24
 Full point group                 C1      NOp   1
 Largest Abelian subgroup         C1      NOp   1
 Largest concise Abelian subgroup C1      NOp   1
                         Standard orientation:                         
 ---------------------------------------------------------------------
 Center     Atomic      Atomic             Coordinates (Angstroms)
 Number     Number       Type             X           Y           Z
 ---------------------------------------------------------------------
      1          6           0       -1.311275   -0.615043   -0.001744
      2          1           0       -1.195525   -1.567917   -0.507011
      3          1           0       -1.616675   -0.791763    1.024802
      4          1           0       -2.064338   -0.019415   -0.501914
      5          6           0        0.000710    0.135103   -0.000523
      6          8           0        0.000018    1.416659    0.000084
      7          6           0        1.311747   -0.614495    0.001409
      8          1           0        1.258050   -1.447569    0.694899
      9          1           0        1.501924   -0.997581   -0.996545
     10          1           0        2.109325    0.057584    0.290241
 ---------------------------------------------------------------------
 Rotational constants (GHZ):          10.0317759           8.2649396           4.8022764
 Standard basis: 6-311G(d,p) (5D, 7F)
 There are   112 symmetry adapted cartesian basis functions of A   symmetry.
 There are   108 symmetry adapted basis functions of A   symmetry.
   108 basis functions,   176 primitive gaussians,   112 cartesian basis functions
    16 alpha electrons       16 beta electrons
       nuclear repulsion energy       117.9954803270 Hartrees.
 NAtoms=   10 NActive=   10 NUniq=   10 SFac= 1.00D+00 NAtFMM=   60 NAOKFM=F Big=F
 Integral buffers will be    131072 words long.
 Raffenetti 2 integral format.
 Two-electron integral symmetry is turned on.
 ------------------------------------------------------------------------------
 Polarizable Continuum Model (PCM)
 =================================
 Model                : PCM.
 Atomic radii         : UFF (Universal Force Field).
 Polarization charges : Total charges.
 Charge compensation  : None.
 Solution method      : On-the-fly selection.
 Cavity type          : Scaled VdW (van der Waals Surface) (Alpha=1.100).
 Cavity algorithm     : GePol (No added spheres)
                        Default sphere list used, NSphG=   10.
                        Lebedev-Laikov grids with approx.  5.0 points / Ang**2.
                        Smoothing algorithm: York/Karplus (Gamma=1.0000).
                        Polarization charges: spherical gaussians, with
                                              point-specific exponents (IZeta= 3).
                        Self-potential: point-specific (ISelfS= 7).
                        Self-field    : sphere-specific E.n sum rule (ISelfD= 2).
 1st derivatives      : Analytical E(r).r(x)/FMM algorithm (CHGder, D1EAlg=3).
                        Cavity 1st derivative terms included.
 Solvent              : CarbonTetraChloride, Eps=   2.228000 Eps(inf)=   2.131892
 ------------------------------------------------------------------------------
 Spheres list:
 ISph  on   Nord     Re0    Alpha      Xe            Ye            Ze
    1   C      1    1.9255  1.100     -1.311275     -0.615043     -0.001744
    2   H      2    1.4430  1.100     -1.195525     -1.567917     -0.507011
    3   H      3    1.4430  1.100     -1.616675     -0.791763      1.024802
    4   H      4    1.4430  1.100     -2.064338     -0.019415     -0.501914
    5   C      5    1.9255  1.100      0.000710      0.135103     -0.000523
    6   O      6    1.7500  1.100      0.000018      1.416659      0.000084
    7   C      7    1.9255  1.100      1.311747     -0.614495      0.001409
    8   H      8    1.4430  1.100      1.258050     -1.447569      0.694899
    9   H      9    1.4430  1.100      1.501924     -0.997581     -0.996545
   10   H     10    1.4430  1.100      2.109325      0.057584      0.290241
 ------------------------------------------------------------------------------
 One-electron integrals computed using PRISM.
 NBasis=   108 RedAO= T EigKep=  2.50D-03  NBF=   108
 NBsUse=   108 1.00D-06 EigRej= -1.00D+00 NBFU=   108
 Initial guess from the checkpoint file:  "/kimariyb/g16/scratch/Gau-42512.chk"
 B after Tr=    -0.000000    0.000000   -0.000000
         Rot=    1.000000   -0.000006   -0.000557    0.000164 Ang=  -0.07 deg.
 ExpMin= 1.03D-01 ExpMax= 8.59D+03 ExpMxC= 1.30D+03 IAcc=3 IRadAn=         5 AccDes= 0.00D+00
 Harris functional with IExCor=  402 and IRadAn=       5 diagonalized for initial guess.
 HarFok:  IExCor=  402 AccDes= 0.00D+00 IRadAn=         5 IDoV= 1 UseB2=F ITyADJ=14
 ICtDFT=  3500011 ScaDFX=  1.000000  1.000000  1.000000  1.000000
 FoFCou: FMM=F IPFlag=           0 FMFlag=      100000 FMFlg1=           0
         NFxFlg=           0 DoJE=T BraDBF=F KetDBF=T FulRan=T
         wScrn=  0.000000 ICntrl=       500 IOpCl=  0 I1Cent=   200000004 NGrid=           0
         NMat0=    1 NMatS0=      1 NMatT0=    0 NMatD0=    1 NMtDS0=    0 NMtDT0=    0
 Petite list used in FoFCou.
 Keep R1 ints in memory in canonical form, NReq=26716915.
 Requested convergence on RMS density matrix=1.00D-08 within 128 cycles.
 Requested convergence on MAX density matrix=1.00D-06.
 Requested convergence on             energy=1.00D-06.
 No special actions if energy rises.
 Inv3:  Mode=1 IEnd=     2566875.
 Iteration    1 A*A^-1 deviation from unit magnitude is 2.44D-15 for     19.
 Iteration    1 A*A^-1 deviation from orthogonality  is 2.02D-15 for    896    441.
 Iteration    1 A^-1*A deviation from unit magnitude is 2.44D-15 for    558.
 Iteration    1 A^-1*A deviation from orthogonality  is 1.28D-15 for    735     84.
 Error on total polarization charges =  0.00464
 SCF Done:  E(RB3LYP) =  -193.208528991     A.U. after   11 cycles
            NFock= 11  Conv=0.66D-08     -V/T= 2.0046
 D1PCM: PCM CHGder 1st derivatives, ID1Alg=3 FixD1E=F DoIter=F DoCFld=F I1PDM=0.
 Calling FoFJK, ICntrl=      2127 FMM=F ISym2X=0 I1Cent= 0 IOpClX= 0 NMat=1 NMatS=1 NMatT=0.
 ***** Axes restored to original set *****
 -------------------------------------------------------------------
 Center     Atomic                   Forces (Hartrees/Bohr)
 Number     Number              X              Y              Z
 -------------------------------------------------------------------
      1        6           0.005639978    0.000871728   -0.012082244
      2        1           0.001224220   -0.005811389    0.002808127
      3        1           0.001807963    0.000717572    0.005671766
      4        1          -0.004395674    0.001494368    0.001040446
      5        6          -0.042205028    0.071825202   -0.027534449
      6        8           0.039156950   -0.066546500    0.025372817
      7        6          -0.008035290    0.003982605    0.008574024
      8        1           0.004855518   -0.004093588    0.002111886
      9        1           0.000849443   -0.005487512   -0.003036411
     10        1           0.001101920    0.003047513   -0.002925961
 -------------------------------------------------------------------
 Cartesian Forces:  Max     0.071825202 RMS     0.022242528

 GradGradGradGradGradGradGradGradGradGradGradGradGradGradGradGradGradGrad
 Berny optimization.
 Using GEDIIS/GDIIS optimizer.
 FormGI is forming the generalized inverse of G from B-inverse, IUseBI=4.
 Internal  Forces:  Max     0.081273348 RMS     0.013870580
 Search for a local minimum.
 Step number   2 out of a maximum of   46
 All quantities printed in internal units (Hartrees-Bohrs-Radians)
 Mixed Optimization -- RFO/linear search
 Update second derivatives using D2CorX and points    1    2
 DE= -4.12D-02 DEPred=-3.55D-02 R= 1.16D+00
 TightC=F SS=  1.41D+00  RLast= 3.01D-01 DXNew= 5.0454D-01 9.0323D-01
 Trust test= 1.16D+00 RLast= 3.01D-01 DXMaxT set to 5.05D-01
 ITU=  1  0
 Use linear search instead of GDIIS.
     Eigenvalues ---    0.00237   0.00237   0.00237   0.07161   0.07197
     Eigenvalues ---    0.07310   0.07321   0.15821   0.16000   0.16000
     Eigenvalues ---    0.16000   0.16000   0.16013   0.24181   0.25000
     Eigenvalues ---    0.28463   0.28526   0.34704   0.37230   0.37230
     Eigenvalues ---    0.37230   0.37230   0.37234   0.37829
 RFO step:  Lambda=-3.13240739D-03 EMin= 2.36815753D-03
 Quartic linear search produced a step of  0.43752.
 Iteration  1 RMS(Cart)=  0.02378010 RMS(Int)=  0.00032637
 Iteration  2 RMS(Cart)=  0.00059118 RMS(Int)=  0.00006600
 Iteration  3 RMS(Cart)=  0.00000007 RMS(Int)=  0.00006600
 Variable       Old X    -DE/DX   Delta X   Delta X   Delta X     New X
                                 (Linear)    (Quad)   (Total)
    R1        2.04986   0.00548   0.01219  -0.00435   0.00784   2.05770
    R2        2.05129   0.00588   0.01281  -0.00412   0.00869   2.05997
    R3        2.04584   0.00436   0.01043  -0.00499   0.00543   2.05127
    R4        2.85594  -0.00191  -0.02373   0.04677   0.02304   2.87898
    R5        2.42179  -0.08127  -0.12273  -0.03848  -0.16122   2.26058
    R6        2.85387  -0.00233  -0.02463   0.04684   0.02221   2.87608
    R7        2.05087   0.00573   0.01263  -0.00433   0.00830   2.05917
    R8        2.05175   0.00600   0.01301  -0.00408   0.00894   2.06069
    R9        2.04514   0.00419   0.01012  -0.00498   0.00514   2.05028
    A1        1.90447  -0.00286  -0.00270  -0.01613  -0.01896   1.88551
    A2        1.92018  -0.00049   0.00418  -0.01567  -0.01163   1.90855
    A3        1.92171   0.00487   0.00485   0.02798   0.03269   1.95441
    A4        1.90793  -0.00101  -0.00118  -0.00753  -0.00874   1.89919
    A5        1.90105  -0.00029  -0.00419   0.01024   0.00597   1.90702
    A6        1.90832  -0.00026  -0.00101   0.00111   0.00001   1.90833
    A7        2.08966   0.00304  -0.00207   0.02254   0.02045   2.11011
    A8        2.10280  -0.00693   0.00368  -0.04872  -0.04505   2.05775
    A9        2.09073   0.00389  -0.00160   0.02619   0.02458   2.11531
   A10        1.91652   0.00382   0.00257   0.02575   0.02820   1.94471
   A11        1.90288   0.00050  -0.00339   0.01492   0.01143   1.91431
   A12        1.90909  -0.00030  -0.00068  -0.00024  -0.00096   1.90813
   A13        1.90198  -0.00323  -0.00379  -0.01605  -0.02001   1.88197
   A14        1.92050  -0.00023   0.00432  -0.01471  -0.01047   1.91003
   A15        1.91275  -0.00056   0.00093  -0.00948  -0.00857   1.90418
    D1        2.62300   0.00073   0.00219   0.01273   0.01492   2.63792
    D2       -0.51968   0.00064   0.00171   0.01998   0.02169  -0.49800
    D3       -1.57249  -0.00001  -0.00074   0.01616   0.01547  -1.55702
    D4        1.56801  -0.00010  -0.00122   0.02342   0.02224   1.59024
    D5        0.51142  -0.00156  -0.00533   0.01379   0.00843   0.51985
    D6       -2.63126  -0.00166  -0.00581   0.02104   0.01519  -2.61607
    D7       -0.74621   0.00093   0.00309   0.00844   0.01149  -0.73471
    D8        1.33644  -0.00042  -0.00205   0.01333   0.01134   1.34778
    D9       -2.85541  -0.00098  -0.00339   0.01064   0.00722  -2.84819
   D10        2.39429   0.00083   0.00261   0.01570   0.01828   2.41257
   D11       -1.80625  -0.00052  -0.00253   0.02058   0.01812  -1.78812
   D12        0.28509  -0.00108  -0.00387   0.01789   0.01400   0.29909
         Item               Value     Threshold  Converged?
 Maximum Force            0.081273     0.000450     NO 
 RMS     Force            0.013871     0.000300     NO 
 Maximum Displacement     0.070589     0.001800     NO 
 RMS     Displacement     0.023773     0.001200     NO 
 Predicted change in Energy=-9.754771D-03
 GradGradGradGradGradGradGradGradGradGradGradGradGradGradGradGradGradGrad

                          Input orientation:                          
 ---------------------------------------------------------------------
 Center     Atomic      Atomic             Coordinates (Angstroms)
 Number     Number       Type             X           Y           Z
 ---------------------------------------------------------------------
      1          6           0       -2.268122    0.270847    0.021057
      2          1           0       -1.922135   -0.754496   -0.099926
      3          1           0       -1.990197    0.605011    1.020753
      4          1           0       -3.349480    0.298617   -0.069348
      5          6           0       -1.651354    1.206301   -1.011193
      6          8           0       -2.234875    2.182610   -1.381771
      7          6           0       -0.275742    0.854507   -1.559174
      8          1           0        0.390039    0.506492   -0.769874
      9          1           0       -0.367076    0.055317   -2.295436
     10          1           0        0.155283    1.728725   -2.035720
 ---------------------------------------------------------------------
                    Distance matrix (angstroms):
                    1          2          3          4          5
     1  C    0.000000
     2  H    1.088886   0.000000
     3  H    1.090091   1.763183   0.000000
     4  H    1.085485   1.774062   1.769137   0.000000
     5  C    1.523489   2.179096   2.145966   2.143500   0.000000
     6  O    2.371470   3.219864   2.884581   2.552298   1.196245
     7  C    2.609093   2.725602   3.107672   3.460702   1.521956
     8  H    2.783330   2.717549   2.980197   3.810243   2.171464
     9  H    3.004426   2.809675   3.732800   3.729531   2.150213
    10  H    3.496946   3.772181   3.899723   4.265582   2.141615
                    6          7          8          9         10
     6  O    0.000000
     7  C    2.373506   0.000000
     8  H    3.173951   1.089667   0.000000
     9  H    2.974699   1.090472   1.761852   0.000000
    10  H    2.519228   1.084959   1.775199   1.772176   0.000000
 Stoichiometry    C3H6O
 Framework group  C1[X(C3H6O)]
 Deg. of freedom    24
 Full point group                 C1      NOp   1
 Largest Abelian subgroup         C1      NOp   1
 Largest concise Abelian subgroup C1      NOp   1
                         Standard orientation:                         
 ---------------------------------------------------------------------
 Center     Atomic      Atomic             Coordinates (Angstroms)
 Number     Number       Type             X           Y           Z
 ---------------------------------------------------------------------
      1          6           0       -1.302478   -0.609896   -0.002580
      2          1           0       -1.191404   -1.578424   -0.487646
      3          1           0       -1.622137   -0.781978    1.025284
      4          1           0       -2.067809   -0.036212   -0.515838
      5          6           0        0.001150    0.178493    0.001759
      6          8           0       -0.004343    1.374724   -0.000476
      7          6           0        1.306606   -0.603897    0.001382
      8          1           0        1.260045   -1.456162    0.678767
      9          1           0        1.506405   -0.984477   -1.000799
     10          1           0        2.117982    0.051260    0.300673
 ---------------------------------------------------------------------
 Rotational constants (GHZ):          10.4330149           8.3153705           4.9088650
 Standard basis: 6-311G(d,p) (5D, 7F)
 There are   112 symmetry adapted cartesian basis functions of A   symmetry.
 There are   108 symmetry adapted basis functions of A   symmetry.
   108 basis functions,   176 primitive gaussians,   112 cartesian basis functions
    16 alpha electrons       16 beta electrons
       nuclear repulsion energy       119.5794925392 Hartrees.
 NAtoms=   10 NActive=   10 NUniq=   10 SFac= 1.00D+00 NAtFMM=   60 NAOKFM=F Big=F
 Integral buffers will be    131072 words long.
 Raffenetti 2 integral format.
 Two-electron integral symmetry is turned on.
 ------------------------------------------------------------------------------
 Polarizable Continuum Model (PCM)
 =================================
 Model                : PCM.
 Atomic radii         : UFF (Universal Force Field).
 Polarization charges : Total charges.
 Charge compensation  : None.
 Solution method      : On-the-fly selection.
 Cavity type          : Scaled VdW (van der Waals Surface) (Alpha=1.100).
 Cavity algorithm     : GePol (No added spheres)
                        Default sphere list used, NSphG=   10.
                        Lebedev-Laikov grids with approx.  5.0 points / Ang**2.
                        Smoothing algorithm: York/Karplus (Gamma=1.0000).
                        Polarization charges: spherical gaussians, with
                                              point-specific exponents (IZeta= 3).
                        Self-potential: point-specific (ISelfS= 7).
                        Self-field    : sphere-specific E.n sum rule (ISelfD= 2).
 1st derivatives      : Analytical E(r).r(x)/FMM algorithm (CHGder, D1EAlg=3).
                        Cavity 1st derivative terms included.
 Solvent              : CarbonTetraChloride, Eps=   2.228000 Eps(inf)=   2.131892
 ------------------------------------------------------------------------------
 Spheres list:
 ISph  on   Nord     Re0    Alpha      Xe            Ye            Ze
    1   C      1    1.9255  1.100     -1.302478     -0.609896     -0.002580
    2   H      2    1.4430  1.100     -1.191404     -1.578424     -0.487646
    3   H      3    1.4430  1.100     -1.622137     -0.781978      1.025284
    4   H      4    1.4430  1.100     -2.067809     -0.036212     -0.515838
    5   C      5    1.9255  1.100      0.001150      0.178493      0.001759
    6   O      6    1.7500  1.100     -0.004343      1.374724     -0.000476
    7   C      7    1.9255  1.100      1.306606     -0.603897      0.001382
    8   H      8    1.4430  1.100      1.260045     -1.456162      0.678767
    9   H      9    1.4430  1.100      1.506405     -0.984477     -1.000799
   10   H     10    1.4430  1.100      2.117982      0.051260      0.300673
 ------------------------------------------------------------------------------
 One-electron integrals computed using PRISM.
 NBasis=   108 RedAO= T EigKep=  2.59D-03  NBF=   108
 NBsUse=   108 1.00D-06 EigRej= -1.00D+00 NBFU=   108
 Initial guess from the checkpoint file:  "/kimariyb/g16/scratch/Gau-42512.chk"
 B after Tr=     0.000000   -0.000000    0.000000
         Rot=    0.999999    0.000108    0.000163   -0.001114 Ang=   0.13 deg.
 ExpMin= 1.03D-01 ExpMax= 8.59D+03 ExpMxC= 1.30D+03 IAcc=3 IRadAn=         5 AccDes= 0.00D+00
 Harris functional with IExCor=  402 and IRadAn=       5 diagonalized for initial guess.
 HarFok:  IExCor=  402 AccDes= 0.00D+00 IRadAn=         5 IDoV= 1 UseB2=F ITyADJ=14
 ICtDFT=  3500011 ScaDFX=  1.000000  1.000000  1.000000  1.000000
 FoFCou: FMM=F IPFlag=           0 FMFlag=      100000 FMFlg1=           0
         NFxFlg=           0 DoJE=T BraDBF=F KetDBF=T FulRan=T
         wScrn=  0.000000 ICntrl=       500 IOpCl=  0 I1Cent=   200000004 NGrid=           0
         NMat0=    1 NMatS0=      1 NMatT0=    0 NMatD0=    1 NMtDS0=    0 NMtDT0=    0
 Petite list used in FoFCou.
 Keep R1 ints in memory in canonical form, NReq=26716915.
 Requested convergence on RMS density matrix=1.00D-08 within 128 cycles.
 Requested convergence on MAX density matrix=1.00D-06.
 Requested convergence on             energy=1.00D-06.
 No special actions if energy rises.
 Inv3:  Mode=1 IEnd=     2533683.
 Iteration    1 A*A^-1 deviation from unit magnitude is 4.77D-15 for    919.
 Iteration    1 A*A^-1 deviation from orthogonality  is 1.94D-15 for    895    446.
 Iteration    1 A^-1*A deviation from unit magnitude is 4.77D-15 for    919.
 Iteration    1 A^-1*A deviation from orthogonality  is 1.70D-15 for    736     86.
 Error on total polarization charges =  0.00482
 SCF Done:  E(RB3LYP) =  -193.214519916     A.U. after   10 cycles
            NFock= 10  Conv=0.55D-08     -V/T= 2.0035
 D1PCM: PCM CHGder 1st derivatives, ID1Alg=3 FixD1E=F DoIter=F DoCFld=F I1PDM=0.
 Calling FoFJK, ICntrl=      2127 FMM=F ISym2X=0 I1Cent= 0 IOpClX= 0 NMat=1 NMatS=1 NMatT=0.
 ***** Axes restored to original set *****
 -------------------------------------------------------------------
 Center     Atomic                   Forces (Hartrees/Bohr)
 Number     Number              X              Y              Z
 -------------------------------------------------------------------
      1        6           0.002902045   -0.002090032   -0.005570154
      2        1           0.001552615   -0.002142106    0.000556040
      3        1           0.001128409    0.001153814    0.002570719
      4        1          -0.003198152    0.001654741    0.000892614
      5        6           0.010768827   -0.019241172    0.006250723
      6        8          -0.012500598    0.021275717   -0.007764807
      7        6          -0.001733537    0.001942742    0.005208399
      8        1           0.001129308   -0.002168216    0.001613272
      9        1          -0.000707761   -0.002678225   -0.001248216
     10        1           0.000658844    0.002292738   -0.002508592
 -------------------------------------------------------------------
 Cartesian Forces:  Max     0.021275717 RMS     0.006664028

 GradGradGradGradGradGradGradGradGradGradGradGradGradGradGradGradGradGrad
 Berny optimization.
 Using GEDIIS/GDIIS optimizer.
 FormGI is forming the generalized inverse of G from B-inverse, IUseBI=4.
 Internal  Forces:  Max     0.025867176 RMS     0.004639182
 Search for a local minimum.
 Step number   3 out of a maximum of   46
 All quantities printed in internal units (Hartrees-Bohrs-Radians)
 Mixed Optimization -- RFO/linear search
 Update second derivatives using D2CorX and points    1    2    3
 DE= -5.99D-03 DEPred=-9.75D-03 R= 6.14D-01
 TightC=F SS=  1.41D+00  RLast= 1.91D-01 DXNew= 8.4853D-01 5.7310D-01
 Trust test= 6.14D-01 RLast= 1.91D-01 DXMaxT set to 5.73D-01
 ITU=  1  1  0
 Use linear search instead of GDIIS.
     Eigenvalues ---    0.00237   0.00237   0.00237   0.06923   0.06994
     Eigenvalues ---    0.07212   0.07256   0.15957   0.16000   0.16000
     Eigenvalues ---    0.16000   0.16003   0.16032   0.24004   0.25000
     Eigenvalues ---    0.28518   0.29297   0.37228   0.37230   0.37230
     Eigenvalues ---    0.37230   0.37232   0.37454   0.73094
 RFO step:  Lambda=-7.20487592D-04 EMin= 2.36591802D-03
 Quartic linear search produced a step of -0.17113.
 Iteration  1 RMS(Cart)=  0.02132276 RMS(Int)=  0.00030016
 Iteration  2 RMS(Cart)=  0.00034918 RMS(Int)=  0.00008859
 Iteration  3 RMS(Cart)=  0.00000006 RMS(Int)=  0.00008859
 Variable       Old X    -DE/DX   Delta X   Delta X   Delta X     New X
                                 (Linear)    (Quad)   (Total)
    R1        2.05770   0.00245  -0.00134   0.00892   0.00758   2.06527
    R2        2.05997   0.00300  -0.00149   0.01038   0.00890   2.06887
    R3        2.05127   0.00315  -0.00093   0.00972   0.00879   2.06006
    R4        2.87898  -0.00114  -0.00394  -0.00332  -0.00726   2.87172
    R5        2.26058   0.02587   0.02759   0.00316   0.03074   2.29132
    R6        2.87608  -0.00156  -0.00380  -0.00487  -0.00867   2.86741
    R7        2.05917   0.00255  -0.00142   0.00930   0.00788   2.06705
    R8        2.06069   0.00286  -0.00153   0.01017   0.00864   2.06933
    R9        2.05028   0.00321  -0.00088   0.00975   0.00887   2.05914
    A1        1.88551  -0.00030   0.00324  -0.01123  -0.00794   1.87757
    A2        1.90855   0.00106   0.00199   0.01342   0.01528   1.92384
    A3        1.95441   0.00072  -0.00559   0.01690   0.01126   1.96567
    A4        1.89919  -0.00035   0.00149  -0.01090  -0.00946   1.88973
    A5        1.90702  -0.00122  -0.00102  -0.01123  -0.01226   1.89477
    A6        1.90833   0.00006  -0.00000   0.00210   0.00200   1.91033
    A7        2.11011   0.00247  -0.00350   0.01213   0.00837   2.11848
    A8        2.05775  -0.00500   0.00771  -0.02527  -0.01783   2.03992
    A9        2.11531   0.00253  -0.00421   0.01335   0.00887   2.12418
   A10        1.94471   0.00028  -0.00483   0.01076   0.00588   1.95060
   A11        1.91431  -0.00135  -0.00196  -0.00962  -0.01158   1.90273
   A12        1.90813   0.00040   0.00017   0.00507   0.00518   1.91331
   A13        1.88197  -0.00050   0.00342  -0.01565  -0.01223   1.86974
   A14        1.91003   0.00099   0.00179   0.01241   0.01411   1.92414
   A15        1.90418   0.00016   0.00147  -0.00343  -0.00196   1.90222
    D1        2.63792   0.00069  -0.00255   0.03675   0.03425   2.67218
    D2       -0.49800   0.00039  -0.00371  -0.00461  -0.00825  -0.50625
    D3       -1.55702  -0.00004  -0.00265   0.02594   0.02325  -1.53377
    D4        1.59024  -0.00034  -0.00381  -0.01542  -0.01926   1.57099
    D5        0.51985  -0.00116  -0.00144   0.00726   0.00578   0.52563
    D6       -2.61607  -0.00146  -0.00260  -0.03410  -0.03672  -2.65279
    D7       -0.73471   0.00093  -0.00197   0.05211   0.05019  -0.68453
    D8        1.34778  -0.00039  -0.00194   0.03314   0.03120   1.37898
    D9       -2.84819  -0.00076  -0.00124   0.02620   0.02493  -2.82326
   D10        2.41257   0.00063  -0.00313   0.01063   0.00754   2.42010
   D11       -1.78812  -0.00069  -0.00310  -0.00835  -0.01146  -1.79958
   D12        0.29909  -0.00106  -0.00240  -0.01528  -0.01772   0.28137
         Item               Value     Threshold  Converged?
 Maximum Force            0.025867     0.000450     NO 
 RMS     Force            0.004639     0.000300     NO 
 Maximum Displacement     0.051904     0.001800     NO 
 RMS     Displacement     0.021453     0.001200     NO 
 Predicted change in Energy=-6.820226D-04
 GradGradGradGradGradGradGradGradGradGradGradGradGradGradGradGradGradGrad

                          Input orientation:                          
 ---------------------------------------------------------------------
 Center     Atomic      Atomic             Coordinates (Angstroms)
 Number     Number       Type             X           Y           Z
 ---------------------------------------------------------------------
      1          6           0       -2.260664    0.267123    0.009491
      2          1           0       -1.902755   -0.760196   -0.095097
      3          1           0       -1.969665    0.618916    1.004552
      4          1           0       -3.348275    0.296137   -0.058781
      5          6           0       -1.663270    1.202816   -1.028260
      6          8           0       -2.249410    2.200444   -1.390713
      7          6           0       -0.281412    0.855806   -1.550230
      8          1           0        0.369326    0.479026   -0.755842
      9          1           0       -0.371583    0.060572   -2.297619
     10          1           0        0.164048    1.733286   -2.018134
 ---------------------------------------------------------------------
                    Distance matrix (angstroms):
                    1          2          3          4          5
     1  C    0.000000
     2  H    1.092895   0.000000
     3  H    1.094798   1.765121   0.000000
     4  H    1.090138   1.790721   1.770714   0.000000
     5  C    1.519647   2.186678   2.137086   2.145040   0.000000
     6  O    2.387138   3.250257   2.883882   2.570590   1.212515
     7  C    2.587801   2.712495   3.071356   3.455908   1.517366
     8  H    2.747268   2.671068   2.930773   3.786806   2.174748
     9  H    2.988987   2.805218   3.710787   3.732101   2.141133
    10  H    3.484268   3.766589   3.864088   4.270933   2.144840
                    6          7          8          9         10
     6  O    0.000000
     7  C    2.388830   0.000000
     8  H    3.197517   1.093836   0.000000
     9  H    2.987936   1.095042   1.761002   0.000000
    10  H    2.537059   1.089651   1.791281   1.778478   0.000000
 Stoichiometry    C3H6O
 Framework group  C1[X(C3H6O)]
 Deg. of freedom    24
 Full point group                 C1      NOp   1
 Largest Abelian subgroup         C1      NOp   1
 Largest concise Abelian subgroup C1      NOp   1
                         Standard orientation:                         
 ---------------------------------------------------------------------
 Center     Atomic      Atomic             Coordinates (Angstroms)
 Number     Number       Type             X           Y           Z
 ---------------------------------------------------------------------
      1          6           0       -1.291062   -0.618436   -0.003445
      2          1           0       -1.183151   -1.598548   -0.474778
      3          1           0       -1.591288   -0.782920    1.036455
      4          1           0       -2.075311   -0.046087   -0.499196
      5          6           0        0.001625    0.180436   -0.013169
      6          8           0       -0.005281    1.392820    0.003250
      7          6           0        1.296711   -0.610009    0.005539
      8          1           0        1.230467   -1.481430    0.663349
      9          1           0        1.502026   -0.982511   -1.003523
     10          1           0        2.115861    0.036991    0.318146
 ---------------------------------------------------------------------
 Rotational constants (GHZ):          10.1928565           8.4343478           4.8945801
 Standard basis: 6-311G(d,p) (5D, 7F)
 There are   112 symmetry adapted cartesian basis functions of A   symmetry.
 There are   108 symmetry adapted basis functions of A   symmetry.
   108 basis functions,   176 primitive gaussians,   112 cartesian basis functions
    16 alpha electrons       16 beta electrons
       nuclear repulsion energy       119.2091340310 Hartrees.
 NAtoms=   10 NActive=   10 NUniq=   10 SFac= 1.00D+00 NAtFMM=   60 NAOKFM=F Big=F
 Integral buffers will be    131072 words long.
 Raffenetti 2 integral format.
 Two-electron integral symmetry is turned on.
 ------------------------------------------------------------------------------
 Polarizable Continuum Model (PCM)
 =================================
 Model                : PCM.
 Atomic radii         : UFF (Universal Force Field).
 Polarization charges : Total charges.
 Charge compensation  : None.
 Solution method      : On-the-fly selection.
 Cavity type          : Scaled VdW (van der Waals Surface) (Alpha=1.100).
 Cavity algorithm     : GePol (No added spheres)
                        Default sphere list used, NSphG=   10.
                        Lebedev-Laikov grids with approx.  5.0 points / Ang**2.
                        Smoothing algorithm: York/Karplus (Gamma=1.0000).
                        Polarization charges: spherical gaussians, with
                                              point-specific exponents (IZeta= 3).
                        Self-potential: point-specific (ISelfS= 7).
                        Self-field    : sphere-specific E.n sum rule (ISelfD= 2).
 1st derivatives      : Analytical E(r).r(x)/FMM algorithm (CHGder, D1EAlg=3).
                        Cavity 1st derivative terms included.
 Solvent              : CarbonTetraChloride, Eps=   2.228000 Eps(inf)=   2.131892
 ------------------------------------------------------------------------------
 Spheres list:
 ISph  on   Nord     Re0    Alpha      Xe            Ye            Ze
    1   C      1    1.9255  1.100     -1.291062     -0.618436     -0.003445
    2   H      2    1.4430  1.100     -1.183151     -1.598548     -0.474778
    3   H      3    1.4430  1.100     -1.591288     -0.782920      1.036455
    4   H      4    1.4430  1.100     -2.075311     -0.046087     -0.499196
    5   C      5    1.9255  1.100      0.001625      0.180436     -0.013169
    6   O      6    1.7500  1.100     -0.005281      1.392820      0.003250
    7   C      7    1.9255  1.100      1.296711     -0.610009      0.005539
    8   H      8    1.4430  1.100      1.230467     -1.481430      0.663349
    9   H      9    1.4430  1.100      1.502026     -0.982511     -1.003523
   10   H     10    1.4430  1.100      2.115861      0.036991      0.318146
 ------------------------------------------------------------------------------
 One-electron integrals computed using PRISM.
 NBasis=   108 RedAO= T EigKep=  2.64D-03  NBF=   108
 NBsUse=   108 1.00D-06 EigRej= -1.00D+00 NBFU=   108
 Initial guess from the checkpoint file:  "/kimariyb/g16/scratch/Gau-42512.chk"
 B after Tr=    -0.000000   -0.000000   -0.000000
         Rot=    1.000000   -0.000322   -0.000378   -0.000082 Ang=  -0.06 deg.
 ExpMin= 1.03D-01 ExpMax= 8.59D+03 ExpMxC= 1.30D+03 IAcc=3 IRadAn=         5 AccDes= 0.00D+00
 Harris functional with IExCor=  402 and IRadAn=       5 diagonalized for initial guess.
 HarFok:  IExCor=  402 AccDes= 0.00D+00 IRadAn=         5 IDoV= 1 UseB2=F ITyADJ=14
 ICtDFT=  3500011 ScaDFX=  1.000000  1.000000  1.000000  1.000000
 FoFCou: FMM=F IPFlag=           0 FMFlag=      100000 FMFlg1=           0
         NFxFlg=           0 DoJE=T BraDBF=F KetDBF=T FulRan=T
         wScrn=  0.000000 ICntrl=       500 IOpCl=  0 I1Cent=   200000004 NGrid=           0
         NMat0=    1 NMatS0=      1 NMatT0=    0 NMatD0=    1 NMtDS0=    0 NMtDT0=    0
 Petite list used in FoFCou.
 Keep R1 ints in memory in canonical form, NReq=26716915.
 Requested convergence on RMS density matrix=1.00D-08 within 128 cycles.
 Requested convergence on MAX density matrix=1.00D-06.
 Requested convergence on             energy=1.00D-06.
 No special actions if energy rises.
 Inv3:  Mode=1 IEnd=     2555787.
 Iteration    1 A*A^-1 deviation from unit magnitude is 4.22D-15 for    914.
 Iteration    1 A*A^-1 deviation from orthogonality  is 1.59D-15 for    913    875.
 Iteration    1 A^-1*A deviation from unit magnitude is 4.00D-15 for    914.
 Iteration    1 A^-1*A deviation from orthogonality  is 1.74D-15 for    893    178.
 Error on total polarization charges =  0.00481
 SCF Done:  E(RB3LYP) =  -193.215091683     A.U. after   10 cycles
            NFock= 10  Conv=0.50D-08     -V/T= 2.0040
 D1PCM: PCM CHGder 1st derivatives, ID1Alg=3 FixD1E=F DoIter=F DoCFld=F I1PDM=0.
 Calling FoFJK, ICntrl=      2127 FMM=F ISym2X=0 I1Cent= 0 IOpClX= 0 NMat=1 NMatS=1 NMatT=0.
 ***** Axes restored to original set *****
 -------------------------------------------------------------------
 Center     Atomic                   Forces (Hartrees/Bohr)
 Number     Number              X              Y              Z
 -------------------------------------------------------------------
      1        6          -0.001305004   -0.001418148   -0.002803743
      2        1          -0.000128688    0.000585818   -0.000301318
      3        1           0.000515369    0.000452871    0.000140370
      4        1          -0.000209701    0.000164612    0.000925512
      5        6           0.002313623    0.001906127    0.003486924
      6        8          -0.000194435   -0.001992842   -0.000748816
      7        6          -0.000335839    0.001084470    0.000115795
      8        1          -0.000726326    0.000163618   -0.000010401
      9        1          -0.000020309   -0.000525079   -0.000173371
     10        1           0.000091310   -0.000421446   -0.000630953
 -------------------------------------------------------------------
 Cartesian Forces:  Max     0.003486924 RMS     0.001181883

 GradGradGradGradGradGradGradGradGradGradGradGradGradGradGradGradGradGrad
 Berny optimization.
 Using GEDIIS/GDIIS optimizer.
 FormGI is forming the generalized inverse of G from B-inverse, IUseBI=4.
 Internal  Forces:  Max     0.001321767 RMS     0.000608507
 Search for a local minimum.
 Step number   4 out of a maximum of   46
 All quantities printed in internal units (Hartrees-Bohrs-Radians)
 Mixed Optimization -- En-DIIS/RFO-DIIS
 Update second derivatives using D2CorX and points    1    2    3    4
 DE= -5.72D-04 DEPred=-6.82D-04 R= 8.38D-01
 TightC=F SS=  1.41D+00  RLast= 1.06D-01 DXNew= 9.6383D-01 3.1939D-01
 Trust test= 8.38D-01 RLast= 1.06D-01 DXMaxT set to 5.73D-01
 ITU=  1  1  1  0
 Use linear search instead of GDIIS.
     Eigenvalues ---    0.00233   0.00237   0.00316   0.05905   0.06880
     Eigenvalues ---    0.07278   0.07323   0.15583   0.15985   0.16000
     Eigenvalues ---    0.16000   0.16012   0.16316   0.21875   0.24986
     Eigenvalues ---    0.28516   0.28802   0.36271   0.37230   0.37230
     Eigenvalues ---    0.37230   0.37232   0.37783   0.83339
 RFO step:  Lambda=-1.07620335D-03 EMin= 2.32629448D-03
 Quartic linear search produced a step of -0.10121.
 Iteration  1 RMS(Cart)=  0.07379048 RMS(Int)=  0.00693087
 Iteration  2 RMS(Cart)=  0.00705245 RMS(Int)=  0.00240978
 Iteration  3 RMS(Cart)=  0.00003773 RMS(Int)=  0.00240955
 Iteration  4 RMS(Cart)=  0.00000003 RMS(Int)=  0.00240955
 Variable       Old X    -DE/DX   Delta X   Delta X   Delta X     New X
                                 (Linear)    (Quad)   (Total)
    R1        2.06527  -0.00056  -0.00077   0.00661   0.00584   2.07112
    R2        2.06887   0.00041  -0.00090   0.01031   0.00941   2.07828
    R3        2.06006   0.00016  -0.00089   0.00942   0.00853   2.06860
    R4        2.87172  -0.00081   0.00073  -0.00928  -0.00854   2.86318
    R5        2.29132  -0.00132  -0.00311   0.01882   0.01571   2.30703
    R6        2.86741  -0.00074   0.00088  -0.01047  -0.00959   2.85782
    R7        2.06705  -0.00050  -0.00080   0.00709   0.00629   2.07334
    R8        2.06933   0.00050  -0.00087   0.01029   0.00941   2.07875
    R9        2.05914  -0.00003  -0.00090   0.00903   0.00813   2.06728
    A1        1.87757   0.00042   0.00080  -0.00800  -0.00720   1.87037
    A2        1.92384   0.00005  -0.00155   0.01726   0.01549   1.93933
    A3        1.96567  -0.00044  -0.00114   0.00999   0.00872   1.97440
    A4        1.88973  -0.00022   0.00096  -0.01160  -0.01064   1.87909
    A5        1.89477  -0.00100   0.00124  -0.01892  -0.01769   1.87708
    A6        1.91033   0.00115  -0.00020   0.00941   0.00908   1.91941
    A7        2.11848  -0.00027  -0.00085   0.01066   0.00149   2.11997
    A8        2.03992   0.00024   0.00180  -0.01551  -0.02199   2.01793
    A9        2.12418   0.00006  -0.00090   0.01248   0.00321   2.12739
   A10        1.95060  -0.00091  -0.00060   0.00140   0.00071   1.95131
   A11        1.90273  -0.00009   0.00117  -0.01239  -0.01125   1.89149
   A12        1.91331   0.00088  -0.00052   0.01089   0.01031   1.92362
   A13        1.86974   0.00015   0.00124  -0.01376  -0.01259   1.85715
   A14        1.92414   0.00029  -0.00143   0.01657   0.01504   1.93917
   A15        1.90222  -0.00033   0.00020  -0.00380  -0.00358   1.89864
    D1        2.67218  -0.00051  -0.00347  -0.19812  -0.20119   2.47099
    D2       -0.50625   0.00049   0.00084   0.03359   0.03419  -0.47206
    D3       -1.53377  -0.00092  -0.00235  -0.21449  -0.21652  -1.75029
    D4        1.57099   0.00008   0.00195   0.01722   0.01886   1.58984
    D5        0.52563  -0.00110  -0.00059  -0.23404  -0.23439   0.29125
    D6       -2.65279  -0.00011   0.00372  -0.00233   0.00099  -2.65180
    D7       -0.68453  -0.00049  -0.00508  -0.16374  -0.16862  -0.85315
    D8        1.37898  -0.00092  -0.00316  -0.18780  -0.19073   1.18824
    D9       -2.82326  -0.00085  -0.00252  -0.19340  -0.19579  -3.01905
   D10        2.42010   0.00051  -0.00076   0.06874   0.06781   2.48791
   D11       -1.79958   0.00008   0.00116   0.04468   0.04570  -1.75388
   D12        0.28137   0.00014   0.00179   0.03908   0.04064   0.32201
         Item               Value     Threshold  Converged?
 Maximum Force            0.001322     0.000450     NO 
 RMS     Force            0.000609     0.000300     NO 
 Maximum Displacement     0.203039     0.001800     NO 
 RMS     Displacement     0.077088     0.001200     NO 
 Predicted change in Energy=-6.611414D-04
 GradGradGradGradGradGradGradGradGradGradGradGradGradGradGradGradGradGrad

                          Input orientation:                          
 ---------------------------------------------------------------------
 Center     Atomic      Atomic             Coordinates (Angstroms)
 Number     Number       Type             X           Y           Z
 ---------------------------------------------------------------------
      1          6           0       -2.256738    0.262336   -0.012524
      2          1           0       -1.925086   -0.767623   -0.186823
      3          1           0       -1.942119    0.536828    1.004913
      4          1           0       -3.347993    0.337668   -0.054435
      5          6           0       -1.632106    1.258384   -0.968209
      6          8           0       -2.272136    2.193752   -1.421940
      7          6           0       -0.278943    0.872670   -1.522467
      8          1           0        0.408803    0.550154   -0.730784
      9          1           0       -0.411227    0.008540   -2.190175
     10          1           0        0.143886    1.701222   -2.098188
 ---------------------------------------------------------------------
                    Distance matrix (angstroms):
                    1          2          3          4          5
     1  C    0.000000
     2  H    1.095988   0.000000
     3  H    1.099777   1.766951   0.000000
     4  H    1.094655   1.806615   1.771543   0.000000
     5  C    1.515127   2.191143   2.123667   2.151039   0.000000
     6  O    2.391037   3.227336   2.957013   2.544128   1.220829
     7  C    2.562051   2.680353   3.044108   3.443895   1.512292
     8  H    2.775580   2.734862   2.922269   3.823102   2.173308
     9  H    2.865744   2.628235   3.582082   3.646136   2.132102
    10  H    3.490470   3.745551   3.916180   4.269593   2.151070
                    6          7          8          9         10
     6  O    0.000000
     7  C    2.393362   0.000000
     8  H    3.219711   1.097165   0.000000
     9  H    2.971248   1.100025   1.759437   0.000000
    10  H    2.556767   1.093955   1.806912   1.783755   0.000000
 Stoichiometry    C3H6O
 Framework group  C1[X(C3H6O)]
 Deg. of freedom    24
 Full point group                 C1      NOp   1
 Largest Abelian subgroup         C1      NOp   1
 Largest concise Abelian subgroup C1      NOp   1
                         Standard orientation:                         
 ---------------------------------------------------------------------
 Center     Atomic      Atomic             Coordinates (Angstroms)
 Number     Number       Type             X           Y           Z
 ---------------------------------------------------------------------
      1          6           0       -1.276693   -0.623206   -0.017469
      2          1           0       -1.155969   -1.562217   -0.569622
      3          1           0       -1.572878   -0.885818    1.008601
      4          1           0       -2.076648   -0.012558   -0.448107
      5          6           0        0.001992    0.184959    0.068821
      6          8           0       -0.006697    1.402668   -0.017964
      7          6           0        1.285290   -0.611958   -0.002569
      8          1           0        1.272553   -1.467290    0.684465
      9          1           0        1.378561   -1.028979   -1.016201
     10          1           0        2.144419    0.036753    0.191881
 ---------------------------------------------------------------------
 Rotational constants (GHZ):          10.0505297           8.5771119           4.9129677
 Standard basis: 6-311G(d,p) (5D, 7F)
 There are   112 symmetry adapted cartesian basis functions of A   symmetry.
 There are   108 symmetry adapted basis functions of A   symmetry.
   108 basis functions,   176 primitive gaussians,   112 cartesian basis functions
    16 alpha electrons       16 beta electrons
       nuclear repulsion energy       119.1643672499 Hartrees.
 NAtoms=   10 NActive=   10 NUniq=   10 SFac= 1.00D+00 NAtFMM=   60 NAOKFM=F Big=F
 Integral buffers will be    131072 words long.
 Raffenetti 2 integral format.
 Two-electron integral symmetry is turned on.
 ------------------------------------------------------------------------------
 Polarizable Continuum Model (PCM)
 =================================
 Model                : PCM.
 Atomic radii         : UFF (Universal Force Field).
 Polarization charges : Total charges.
 Charge compensation  : None.
 Solution method      : On-the-fly selection.
 Cavity type          : Scaled VdW (van der Waals Surface) (Alpha=1.100).
 Cavity algorithm     : GePol (No added spheres)
                        Default sphere list used, NSphG=   10.
                        Lebedev-Laikov grids with approx.  5.0 points / Ang**2.
                        Smoothing algorithm: York/Karplus (Gamma=1.0000).
                        Polarization charges: spherical gaussians, with
                                              point-specific exponents (IZeta= 3).
                        Self-potential: point-specific (ISelfS= 7).
                        Self-field    : sphere-specific E.n sum rule (ISelfD= 2).
 1st derivatives      : Analytical E(r).r(x)/FMM algorithm (CHGder, D1EAlg=3).
                        Cavity 1st derivative terms included.
 Solvent              : CarbonTetraChloride, Eps=   2.228000 Eps(inf)=   2.131892
 ------------------------------------------------------------------------------
 Spheres list:
 ISph  on   Nord     Re0    Alpha      Xe            Ye            Ze
    1   C      1    1.9255  1.100     -1.276693     -0.623206     -0.017469
    2   H      2    1.4430  1.100     -1.155969     -1.562217     -0.569622
    3   H      3    1.4430  1.100     -1.572878     -0.885818      1.008601
    4   H      4    1.4430  1.100     -2.076648     -0.012558     -0.448107
    5   C      5    1.9255  1.100      0.001992      0.184959      0.068821
    6   O      6    1.7500  1.100     -0.006697      1.402668     -0.017964
    7   C      7    1.9255  1.100      1.285290     -0.611958     -0.002569
    8   H      8    1.4430  1.100      1.272553     -1.467290      0.684465
    9   H      9    1.4430  1.100      1.378561     -1.028979     -1.016201
   10   H     10    1.4430  1.100      2.144419      0.036753      0.191881
 ------------------------------------------------------------------------------
 One-electron integrals computed using PRISM.
 NBasis=   108 RedAO= T EigKep=  2.69D-03  NBF=   108
 NBsUse=   108 1.00D-06 EigRej= -1.00D+00 NBFU=   108
 Initial guess from the checkpoint file:  "/kimariyb/g16/scratch/Gau-42512.chk"
 B after Tr=     0.000000    0.000000   -0.000000
         Rot=    0.999987   -0.002789   -0.004190   -0.000352 Ang=  -0.58 deg.
 ExpMin= 1.03D-01 ExpMax= 8.59D+03 ExpMxC= 1.30D+03 IAcc=3 IRadAn=         5 AccDes= 0.00D+00
 Harris functional with IExCor=  402 and IRadAn=       5 diagonalized for initial guess.
 HarFok:  IExCor=  402 AccDes= 0.00D+00 IRadAn=         5 IDoV= 1 UseB2=F ITyADJ=14
 ICtDFT=  3500011 ScaDFX=  1.000000  1.000000  1.000000  1.000000
 FoFCou: FMM=F IPFlag=           0 FMFlag=      100000 FMFlg1=           0
         NFxFlg=           0 DoJE=T BraDBF=F KetDBF=T FulRan=T
         wScrn=  0.000000 ICntrl=       500 IOpCl=  0 I1Cent=   200000004 NGrid=           0
         NMat0=    1 NMatS0=      1 NMatT0=    0 NMatD0=    1 NMtDS0=    0 NMtDT0=    0
 Petite list used in FoFCou.
 Keep R1 ints in memory in canonical form, NReq=26716915.
 Requested convergence on RMS density matrix=1.00D-08 within 128 cycles.
 Requested convergence on MAX density matrix=1.00D-06.
 Requested convergence on             energy=1.00D-06.
 No special actions if energy rises.
 Inv3:  Mode=1 IEnd=     2500707.
 Iteration    1 A*A^-1 deviation from unit magnitude is 2.89D-15 for    890.
 Iteration    1 A*A^-1 deviation from orthogonality  is 2.58D-15 for    897    213.
 Iteration    1 A^-1*A deviation from unit magnitude is 2.89D-15 for    905.
 Iteration    1 A^-1*A deviation from orthogonality  is 2.33D-15 for    888    257.
 Error on total polarization charges =  0.00490
 SCF Done:  E(RB3LYP) =  -193.213109152     A.U. after   11 cycles
            NFock= 11  Conv=0.31D-08     -V/T= 2.0042
 D1PCM: PCM CHGder 1st derivatives, ID1Alg=3 FixD1E=F DoIter=F DoCFld=F I1PDM=0.
 Calling FoFJK, ICntrl=      2127 FMM=F ISym2X=0 I1Cent= 0 IOpClX= 0 NMat=1 NMatS=1 NMatT=0.
 ***** Axes restored to original set *****
 -------------------------------------------------------------------
 Center     Atomic                   Forces (Hartrees/Bohr)
 Number     Number              X              Y              Z
 -------------------------------------------------------------------
      1        6          -0.000867146    0.005359505    0.011090067
      2        1          -0.000524860    0.003388903   -0.001156327
      3        1          -0.000995489   -0.002507584   -0.000362060
      4        1           0.003318899   -0.000514770   -0.000534672
      5        6          -0.016767661   -0.007957642   -0.024437688
      6        8           0.010588060   -0.004226440    0.011149536
      7        6           0.006718226    0.004460278    0.002265945
      8        1          -0.000447244    0.001801607   -0.001940568
      9        1          -0.001162473    0.002509477    0.001753682
     10        1           0.000139688   -0.002313335    0.002172085
 -------------------------------------------------------------------
 Cartesian Forces:  Max     0.024437688 RMS     0.007020656

[...]
 Center     Atomic                   Forces (Hartrees/Bohr)
 Number     Number              X              Y              Z
 -------------------------------------------------------------------
      1        6          -0.000017351   -0.000011750   -0.000009909
      2        1           0.000005871    0.000000443    0.000004218
      3        1           0.000007698   -0.000001353    0.000003524
      4        1           0.000004465    0.000002301   -0.000004587
      5        6          -0.000008119    0.000019840   -0.000001575
      6        8           0.000004589   -0.000003898    0.000005524
      7        6          -0.000010581   -0.000016464   -0.000022582
      8        1           0.000003433    0.000003672    0.000009623
      9        1           0.000007548    0.000002401    0.000007639
     10        1           0.000002448    0.000004806    0.000008124
 -------------------------------------------------------------------
 Cartesian Forces:  Max     0.000022582 RMS     0.000009065
 FormGI is forming the generalized inverse of G from B-inverse, IUseBI=4.

 GradGradGradGradGradGradGradGradGradGradGradGradGradGradGradGradGradGrad
 Berny optimization.
 Internal  Forces:  Max     0.000010986 RMS     0.000005101
 Search for a local minimum.
 Step number   1 out of a maximum of    2
 All quantities printed in internal units (Hartrees-Bohrs-Radians)
 Second derivative matrix not updated -- analytic derivatives used.
 ITU=  0
     Eigenvalues ---    0.00047   0.00114   0.02847   0.05252   0.05328
     Eigenvalues ---    0.05454   0.05667   0.11889   0.12006   0.12298
     Eigenvalues ---    0.12564   0.12624   0.13719   0.21102   0.21118
     Eigenvalues ---    0.29100   0.30151   0.33085   0.33261   0.33858
     Eigenvalues ---    0.33958   0.34660   0.34797   0.84243
 Angle between quadratic step and forces=  78.92 degrees.
 Linear search not attempted -- first point.
 Iteration  1 RMS(Cart)=  0.00076522 RMS(Int)=  0.00000040
 Iteration  2 RMS(Cart)=  0.00000042 RMS(Int)=  0.00000001
 Variable       Old X    -DE/DX   Delta X   Delta X   Delta X     New X
                                 (Linear)    (Quad)   (Total)
    R1        2.06737  -0.00000   0.00000  -0.00002  -0.00002   2.06736
    R2        2.06909   0.00001   0.00000   0.00003   0.00003   2.06912
    R3        2.05818  -0.00000   0.00000  -0.00002  -0.00002   2.05817
    R4        2.86638   0.00000   0.00000   0.00002   0.00002   2.86640
    R5        2.29023  -0.00001   0.00000  -0.00001  -0.00001   2.29022
    R6        2.86639   0.00000   0.00000   0.00001   0.00001   2.86640
    R7        2.06730   0.00001   0.00000   0.00005   0.00005   2.06736
    R8        2.06916  -0.00000   0.00000  -0.00004  -0.00004   2.06912
    R9        2.05817  -0.00000   0.00000  -0.00000  -0.00000   2.05817
    A1        1.86611  -0.00000   0.00000  -0.00005  -0.00005   1.86606
    A2        1.91972   0.00000   0.00000   0.00009   0.00009   1.91981
    A3        1.93331   0.00000   0.00000   0.00008   0.00008   1.93339
    A4        1.90975   0.00001   0.00000   0.00001   0.00001   1.90976
    A5        1.91604  -0.00001   0.00000  -0.00011  -0.00011   1.91593
    A6        1.91818  -0.00000   0.00000  -0.00002  -0.00002   1.91816
    A7        2.12475   0.00000   0.00000   0.00001   0.00001   2.12476
    A8        2.03372  -0.00001   0.00000  -0.00005  -0.00005   2.03367
    A9        2.12472   0.00001   0.00000   0.00004   0.00004   2.12476
   A10        1.93365  -0.00001   0.00000  -0.00026  -0.00026   1.93339
   A11        1.91566   0.00001   0.00000   0.00028   0.00028   1.91593
   A12        1.91816  -0.00000   0.00000  -0.00000  -0.00000   1.91816
   A13        1.86609  -0.00000   0.00000  -0.00003  -0.00003   1.86606
   A14        1.91996  -0.00000   0.00000  -0.00016  -0.00016   1.91980
   A15        1.90957   0.00000   0.00000   0.00018   0.00018   1.90976
    D1        2.21926   0.00000   0.00000   0.00040   0.00040   2.21965
    D2       -0.92212   0.00000   0.00000   0.00017   0.00017  -0.92194
    D3       -2.00702  -0.00000   0.00000   0.00032   0.00032  -2.00670
    D4        1.13480  -0.00000   0.00000   0.00009   0.00009   1.13489
    D5        0.09434  -0.00000   0.00000   0.00025   0.00025   0.09458
    D6       -3.04704  -0.00000   0.00000   0.00002   0.00002  -3.04702
    D7       -0.92024  -0.00000   0.00000  -0.00170  -0.00170  -0.92194
    D8        1.13662  -0.00000   0.00000  -0.00173  -0.00173   1.13489
    D9       -3.04569   0.00001   0.00000  -0.00133  -0.00133  -3.04701
   D10        2.22157  -0.00000   0.00000  -0.00192  -0.00192   2.21965
   D11       -2.00476  -0.00000   0.00000  -0.00195  -0.00195  -2.00671
   D12        0.09613   0.00000   0.00000  -0.00155  -0.00155   0.09457
         Item               Value     Threshold  Converged?
 Maximum Force            0.000011     0.000450     YES
 RMS     Force            0.000005     0.000300     YES
 Maximum Displacement     0.002259     0.001800     NO 
 RMS     Displacement     0.000765     0.001200     YES
 Predicted change in Energy=-1.252279D-08
                           ----------------------------
                           ! Non-Optimized Parameters !
                           ! (Angstroms and Degrees)  !
 --------------------------                            --------------------------
 ! Name  Definition              Value          Derivative Info.                !
 --------------------------------------------------------------------------------
 ! R1    R(1,2)                  1.094          -DE/DX =    0.0                 !
 ! R2    R(1,3)                  1.0949         -DE/DX =    0.0                 !
 ! R3    R(1,4)                  1.0891         -DE/DX =    0.0                 !
 ! R4    R(1,5)                  1.5168         -DE/DX =    0.0                 !
 ! R5    R(5,6)                  1.2119         -DE/DX =    0.0                 !
 ! R6    R(5,7)                  1.5168         -DE/DX =    0.0                 !
 ! R7    R(7,8)                  1.094          -DE/DX =    0.0                 !
 ! R8    R(7,9)                  1.0949         -DE/DX =    0.0                 !
 ! R9    R(7,10)                 1.0891         -DE/DX =    0.0                 !
 ! A1    A(2,1,3)              106.9174         -DE/DX =    0.0                 !
 ! A2    A(2,1,4)              109.9968         -DE/DX =    0.0                 !
 ! A3    A(2,1,5)              110.7753         -DE/DX =    0.0                 !
 ! A4    A(3,1,4)              109.421          -DE/DX =    0.0                 !
 ! A5    A(3,1,5)              109.7747         -DE/DX =    0.0                 !
 ! A6    A(4,1,5)              109.9024         -DE/DX =    0.0                 !
 ! A7    A(1,5,6)              121.7395         -DE/DX =    0.0                 !
 ! A8    A(1,5,7)              116.5209         -DE/DX =    0.0                 !
 ! A9    A(6,5,7)              121.7396         -DE/DX =    0.0                 !
 ! A10   A(5,7,8)              110.7752         -DE/DX =    0.0                 !
 ! A11   A(5,7,9)              109.7749         -DE/DX =    0.0                 !
 ! A12   A(5,7,10)             109.9025         -DE/DX =    0.0                 !
 ! A13   A(8,7,9)              106.9173         -DE/DX =    0.0                 !
 ! A14   A(8,7,10)             109.9967         -DE/DX =    0.0                 !
 ! A15   A(9,7,10)             109.421          -DE/DX =    0.0                 !
 ! D1    D(2,1,5,6)            127.1768         -DE/DX =    0.0                 !
 ! D2    D(2,1,5,7)            -52.8234         -DE/DX =    0.0                 !
 ! D3    D(3,1,5,6)           -114.9753         -DE/DX =    0.0                 !
 ! D4    D(3,1,5,7)             65.0245         -DE/DX =    0.0                 !
 ! D5    D(4,1,5,6)              5.4191         -DE/DX =    0.0                 !
 ! D6    D(4,1,5,7)           -174.5812         -DE/DX =    0.0                 !
 ! D7    D(1,5,7,8)            -52.8234         -DE/DX =    0.0                 !
 ! D8    D(1,5,7,9)             65.0244         -DE/DX =    0.0                 !
 ! D9    D(1,5,7,10)          -174.5811         -DE/DX =    0.0                 !
 ! D10   D(6,5,7,8)            127.1764         -DE/DX =    0.0                 !
 ! D11   D(6,5,7,9)           -114.9758         -DE/DX =    0.0                 !
 ! D12   D(6,5,7,10)             5.4187         -DE/DX =    0.0                 !
 --------------------------------------------------------------------------------
 GradGradGradGradGradGradGradGradGradGradGradGradGradGradGradGradGradGrad


 ----------------------------------------------------------------------

 Electric dipole moment (input orientation):
 (Debye = 10**-18 statcoulomb cm , SI units = C m)
                  (au)            (Debye)         (10**-30 SI)
   Tot        0.125157D+01      0.318116D+01      0.106112D+02
   x          0.637051D+00      0.161922D+01      0.540114D+01
   y         -0.980419D+00     -0.249198D+01     -0.831234D+01
   z          0.446499D+00      0.113489D+01      0.378558D+01

 Dipole polarizability, Alpha (input orientation).
 (esu units = cm**3 , SI units = C**2 m**2 J**-1)
 Alpha(0;0):
               (au)            (10**-24 esu)      (10**-40 SI)
   iso        0.404001D+02      0.598667D+01      0.666107D+01
   aniso      0.128793D+02      0.190852D+01      0.212352D+01
   xx         0.426982D+02      0.632722D+01      0.703998D+01
   yx        -0.312196D+01     -0.462626D+00     -0.514741D+00
   yy         0.409027D+02      0.606115D+01      0.674394D+01
   zx        -0.295589D+01     -0.438018D+00     -0.487361D+00
   zy        -0.548812D+01     -0.813256D+00     -0.904869D+00
   zz         0.375993D+02      0.557164D+01      0.619929D+01

 ----------------------------------------------------------------------

 Dipole orientation:
     6         -3.32214932         -1.03736017         -2.58549189
     1         -3.46033672         -2.57148738         -1.20658106
     1         -3.33674722          0.73500094         -1.51794569
     1         -4.94116369         -1.08471225         -3.85540127
     6         -0.89296665         -1.24160487         -4.09329598
     8         -0.89296074         -1.24215483         -6.38353032
     6          1.53621370         -1.44569595         -2.58544813
     1          1.67331089          0.08621819         -1.20407561
     1          1.55165837         -3.21982167         -1.52070516
     1          3.15529031         -1.39587067         -3.85516216

 Electric dipole moment (dipole orientation):
 (Debye = 10**-18 statcoulomb cm , SI units = C m)
                  (au)            (Debye)         (10**-30 SI)
   Tot        0.125157D+01      0.318116D+01      0.106112D+02
   x          0.000000D+00      0.000000D+00      0.000000D+00
   y          0.000000D+00      0.000000D+00      0.000000D+00
   z          0.125157D+01      0.318116D+01      0.106112D+02

 Dipole polarizability, Alpha (dipole orientation).
 (esu units = cm**3 , SI units = C**2 m**2 J**-1)
 Alpha(0;0):
               (au)            (10**-24 esu)      (10**-40 SI)
   iso        0.404001D+02      0.598667D+01      0.666107D+01
   aniso      0.128793D+02      0.190852D+01      0.212352D+01
   xx         0.438139D+02      0.649255D+01      0.722394D+01
   yx        -0.107359D+01     -0.159090D+00     -0.177011D+00
   yy         0.319552D+02      0.473528D+01      0.526871D+01
   zx        -0.164684D-03     -0.244036D-04     -0.271526D-04
   zy         0.658860D-03      0.976329D-04      0.108631D-03
   zz         0.454310D+02      0.673218D+01      0.749056D+01

 ----------------------------------------------------------------------
 Unable to Open any file for archive entry.
 1\1\GINC-LOCALHOST\Freq\RB3LYP\6-311G(d,p)\C3H6O1\KIMARIYB\03-Aug-2023
 \0\\#N Geom=AllCheck Guess=TCheck SCRF=Check GenChk RB3LYP/6-311G(d,p)
  Freq\\Title Card Required\\0,1\C,-2.2800358034,0.2544548912,-0.023291
 9145\H,-2.2063673601,-0.7832857544,-0.3616993716\H,-1.7231056837,0.323
 3461941,0.9168792741\H,-3.3225957565,0.5153649524,0.1534253243\C,-1.67
 79347402,1.198072453,-1.0469165775\O,-2.2948990698,2.1472919116,-1.479
 5083543\C,-0.2635360955,0.8916466228,-1.5011666666\H,0.4054749557,0.78
 43474796,-0.6422824759\H,-0.2460397768,-0.0615288764,-2.0397529214\H,0
 .0953801253,1.6842210325,-2.156318608\\Version=ES64L-G16RevC.01\State=
 1-A\HF=-193.2156718\RMSD=1.592e-09\RMSF=9.065e-06\ZeroPoint=0.0832393\
 Thermal=0.0885724\ETot=-193.1270993\HTot=-193.1261551\GTot=-193.160389
 2\Dipole=0.6370511,-0.9804191,0.4464989\DipoleDeriv=-0.0588104,-0.0981
 865,0.14949,-0.0799512,-0.1335505,0.2215235,0.1371851,0.2512437,-0.193
 7632,0.0818825,0.0172405,0.0492254,0.0097903,-0.0759493,-0.04082,0.015
 6867,-0.0864656,0.0559845,0.0137639,-0.0378959,-0.0914441,-0.0257678,0
 .0908808,-0.022233,-0.0635995,0.0132755,-0.0348787,-0.1001545,0.015878
 1,0.0598729,0.0612766,0.055928,0.003452,0.0230048,0.0165178,0.0660833,
 1.1173245,-0.2938712,-0.2883447,-0.2904524,0.9432303,-0.5172953,-0.280
 7394,-0.5123749,0.6430245,-0.7804243,0.2982624,-0.0047709,0.2961773,-0
 .9078774,0.3123408,-0.0092926,0.3095624,-0.5500873,-0.3793729,0.120775
 1,0.1526017,0.1113484,-0.0050049,0.0047786,0.1840185,-0.0129716,-0.001
 7632,0.0139209,0.0216826,-0.0484537,-0.008054,0.1057623,0.0240361,-0.0
 967669,0.0166434,-0.0578606,0.0615578,-0.0314023,-0.0124996,-0.0120753
 ,-0.0535564,-0.082768,0.0288795,-0.0732859,0.0617945,0.0303125,-0.0124
 828,0.0343232,-0.0622919,-0.0198629,0.0969852,0.0616239,0.0778551,0.01
 14662\Polar=42.6981937,-3.1219579,40.9026729,-2.9558914,-5.4881204,37.
 5993006\Quadrupole=0.2880677,-1.0420083,0.7539406,1.386097,-0.7491718,
 0.9362524\PG=C01 [X(C3H6O1)]\NImag=0\\0.57348823,-0.04701653,0.5107326
 0,0.01236917,0.03060323,0.48144627,-0.04928765,0.01533515,0.00953238,0
 .04623589,0.01535370,-0.28078372,-0.08017495,-0.01808889,0.30507616,0.
 00982290,-0.07723625,-0.06548652,-0.00817112,0.08539597,0.07319227,-0.
 11409318,-0.00984830,-0.11119843,0.00055261,0.00010507,0.00201546,0.11
 993453,-0.00815363,-0.03863787,-0.01217472,-0.01596074,-0.00143357,-0.
 02761247,0.01061786,0.04440527,-0.11407160,-0.01588177,-0.23834247,-0.
 00483413,-0.00080623,-0.00850733,0.12558542,0.01528474,0.25700995,-0.2
 9688254,0.06256265,0.04162684,0.00114991,-0.00030078,-0.00026436,-0.01
 283480,0.00322157,0.00308462,0.31980278,0.06656264,-0.06491960,-0.0115
 3827,0.02866042,-0.00497459,-0.00340650,-0.00322505,-0.00028299,0.0006
 0848,-0.06917240,0.06505602,0.03858318,-0.01011654,-0.05296016,0.00938
 980,-0.00151554,-0.00252186,-0.02627604,0.00737199,0.00625044,-0.04583
 630,0.00989820,0.05459440,-0.11928544,-0.02832556,0.03611943,0.0007602
 8,0.00490664,-0.00378164,0.00810695,0.01401932,-0.01428352,-0.01520151
 ,-0.02259337,0.02520829,0.57275797,-0.02997533,-0.10555063,0.02530558,
 -0.01018090,-0.01842155,0.02267790,0.00555253,0.00121654,-0.00341369,0
 .00574862,0.00529954,-0.00727315,-0.22777172,0.68359097,0.03876458,0.0
 2567023,-0.12511988,-0.00975556,-0.00871407,0.01073043,0.01089333,0.01
 885372,-0.01788374,0.00086198,0.00283818,-0.00500561,0.01717539,-0.227
 40261,0.41174073,0.01910383,0.00338470,-0.00017960,0.00120412,-0.00224
 392,0.00032882,0.00028396,-0.00295526,0.00280195,0.00356413,0.00109214
 ,-0.00282742,-0.26510408,0.25416808,-0.10198987,0.27771927,0.01908010,
 -0.03304064,0.03684435,-0.00079644,-0.00146270,0.00193308,-0.00265579,
 -0.00484842,0.00326396,0.00003862,0.00154595,-0.00250946,0.25405648,-0
 .47611859,0.18960384,-0.30628127,0.52205377,-0.01257920,0.04493469,-0.
 00253597,0.00243131,0.00472293,-0.00610186,-0.00045773,0.00023214,-0.0
 0051253,-0.00181667,-0.00225206,0.00181752,-0.10222677,0.18945123,-0.1
 6616324,0.11348218,-0.23564856,0.14958394,-0.00874987,0.00311520,0.010
 45405,-0.00020447,0.00043707,-0.00025935,-0.00157861,-0.00079005,0.000
 80298,0.00045541,-0.00064264,0.00073381,-0.16160083,-0.00252556,0.0366
 3871,-0.02974885,0.03363602,0.00145451,0.46337004,-0.01694199,0.012708
 73,0.01047432,0.00155320,0.00116353,-0.00186672,-0.00005359,-0.0006962
 0,0.00077252,-0.00245687,-0.00207850,0.00423137,-0.00537031,-0.0829191
 0,-0.00059027,0.04931390,-0.01049423,0.00285057,0.02125705,0.56167160,
 0.02470753,0.00258297,0.00345350,0.00109074,0.00035567,-0.00113444,-0.
 00134212,-0.00182983,0.00130801,0.00208325,0.00302433,-0.00248713,0.03
 664129,-0.00192641,-0.10542176,-0.01096626,0.01093760,0.02376029,0.016
 10066,-0.04612282,0.54062910,0.00159666,0.00041920,0.00209461,0.000014
 76,0.00011142,-0.00021376,-0.00072235,-0.00045962,0.00114789,0.0005052
 2,0.00035800,0.00003355,-0.01379069,0.00218604,-0.02919538,-0.00505281
 ,0.00345445,0.00455230,-0.14464739,0.01120733,-0.12635496,0.15387549,-
 0.00030784,-0.00022328,0.00022512,-0.00022517,-0.00007087,-0.00008795,
 -0.00023249,0.00030037,-0.00011252,-0.00002619,-0.00020399,-0.00006994
 ,0.00562761,-0.00398745,0.00597991,0.00235100,-0.00027218,-0.00205877,
 0.01242168,-0.04334252,0.02424828,-0.01692347,0.04570122,-0.00060076,-
 0.00018524,-0.00154939,-0.00008042,-0.00005815,0.00004894,0.00096883,0
 .00030051,0.00004248,-0.00022062,-0.00009181,0.00034840,0.00563290,0.0
 0107970,0.01086567,0.00105351,-0.00292254,-0.00104637,-0.12396119,0.02
 307227,-0.20767186,0.13784468,-0.02257876,0.22500725,-0.00056331,-0.00
 259267,-0.00179750,-0.00066652,-0.00055565,0.00102310,0.00023758,0.000
 31402,-0.00040642,0.00010427,-0.00013159,-0.00045038,0.00393769,0.0300
 0652,0.01538170,-0.00664632,-0.00106818,-0.00225954,-0.04186244,0.0036
 6142,0.00790118,0.00071339,-0.01837510,-0.00997246,0.04533848,0.000105
 09,-0.00058581,0.00059101,-0.00043544,0.00061162,0.00030419,-0.0002796
 4,0.00008278,0.00011162,0.00015742,0.00013058,0.00007266,0.00155999,-0
 .00739881,-0.00122891,0.00208735,0.00139191,-0.00095962,-0.00056962,-0
 .24217648,-0.11244406,-0.00051052,0.00289189,0.00184344,-0.00287215,0.
 26263672,0.00035842,0.00078289,0.00018063,0.00060623,0.00056373,-0.000
 33242,0.00008252,-0.00022628,0.00020338,0.00002067,0.00029355,0.000204
 02,-0.00340373,-0.00748406,-0.00512596,0.00073642,0.00006631,0.0001955
 1,0.00522424,-0.11234132,-0.10693959,0.00087873,-0.02237779,-0.0129942
 0,-0.00325366,0.12386819,0.11330672,-0.00532673,0.00296616,0.00097905,
 0.00024108,0.00027535,-0.00050006,0.00011331,0.00014651,0.00017280,-0.
 00066288,-0.00090815,0.00144151,-0.01058034,-0.02720826,0.02122512,0.0
 0467675,0.00053601,-0.00258040,-0.07543299,-0.06217014,0.05013869,0.00
 750772,0.01568996,-0.01066446,-0.00059284,0.00075752,-0.00124985,0.080
 05692,0.00129380,0.00030021,-0.00015566,0.00013881,0.00029569,-0.00010
 125,0.00001942,-0.00010590,0.00017289,0.00022735,0.00042758,-0.0000895
 8,0.00389091,0.00428908,-0.00501002,-0.00091673,0.00124515,-0.00127256
 ,-0.06633915,-0.19383683,0.12117427,0.00015717,-0.00079319,-0.00045942
 ,-0.00838663,-0.01758439,0.01685478,0.06991504,0.20576261,0.00264578,-
 0.00115420,0.00091400,-0.00020924,0.00023063,0.00011279,-0.00027124,-0
 .00019980,0.00043182,0.00046058,0.00062590,-0.00024003,0.00291835,0.00
 898551,-0.00861664,-0.00243974,-0.00156858,0.00100270,0.05281158,0.119
 52008,-0.14549612,0.00921233,0.01683241,-0.01305092,-0.00616601,-0.012
 15852,0.01130193,-0.05896240,-0.13111345,0.15364046\\0.00001735,0.0000
 1175,0.00000991,-0.00000587,-0.00000044,-0.00000422,-0.00000770,0.0000
 0135,-0.00000352,-0.00000446,-0.00000230,0.00000459,0.00000812,-0.0000
 1984,0.00000157,-0.00000459,0.00000390,-0.00000552,0.00001058,0.000016
 46,0.00002258,-0.00000343,-0.00000367,-0.00000962,-0.00000755,-0.00000
 240,-0.00000764,-0.00000245,-0.00000481,-0.00000812\\\@
 The archive entry for this job was punched.


 WHEN HAVING A MEETING OF THE MINDS,
 MAKE SURE YOU HAVE THE EQUIPMENT FOR IT.
 Job cpu time:       0 days  0 hours  3 minutes 20.8 seconds.
 Elapsed time:       0 days  0 hours  0 minutes 20.6 seconds.
 File lengths (MBytes):  RWF=     31 Int=      0 D2E=      0 Chk=      6 Scr=      1
 Normal termination of Gaussian 16 at Thu Aug  3 16:04:57 2023.
