 Entering Gaussian System, Link 0=g16
 Initial command:
 /kimariyb/g16/l1.exe "/kimariyb/g16/scratch/Gau-39615.inp" -scrdir="/kimariyb/g16/scratch/"
 Default is to use a total of  10 processors:
                               10 via shared-memory
                                1 via Linda
 Entering Link 1 = /kimariyb/g16/l1.exe PID=     39616.
  
 Copyright (c) 1988-2019, Gaussian, Inc.  All Rights Reserved.
  
 This is part of the Gaussian(R) 16 program.  It is based on
 the Gaussian(R) 09 system (copyright 2009, Gaussian, Inc.),
 the Gaussian(R) 03 system (copyright 2003, Gaussian, Inc.),
 the Gaussian(R) 98 system (copyright 1998, Gaussian, Inc.),
 the Gaussian(R) 94 system (copyright 1995, Gaussian, Inc.),
 the Gaussian 92(TM) system (copyright 1992, Gaussian, Inc.),
 the Gaussian 90(TM) system (copyright 1990, Gaussian, Inc.),
 the Gaussian 88(TM) system (copyright 1988, Gaussian, Inc.),
 the Gaussian 86(TM) system (copyright 1986, Carnegie Mellon
 University), and the Gaussian 82(TM) system (copyright 1983,
 Carnegie Mellon University). Gaussian is a federally registered
 trademark of Gaussian, Inc.
  
 This software contains proprietary and confidential information,
 including trade secrets, belonging to Gaussian, Inc.
  
 This software is provided under written license and may be
 used, copied, transmitted, or stored only in accord with that
 written license.
  
 The following legend is applicable only to US Government
 contracts under FAR:
  
                    RESTRICTED RIGHTS LEGEND
  
 Use, reproduction and disclosure by the US Government is
 subject to restrictions as set forth in subparagraphs (a)
 and (c) of the Commercial Computer Software - Restricted
 Rights clause in FAR 52.227-19.
  
 Gaussian, Inc.
 340 Quinnipiac St., Bldg. 40, Wallingford CT 06492
  
  
 ---------------------------------------------------------------
 Warning -- This program may not be used in any manner that
 competes with the business of Gaussian, Inc. or will provide
 assistance to any competitor of Gaussian, Inc.  The licensee
 of this program is prohibited from giving any competitor of
 Gaussian, Inc. access to this program.  By using this program,
 the user acknowledges that Gaussian, Inc. is engaged in the
 business of creating and licensing software in the field of
 computational chemistry and represents and warrants to the
 licensee that it is not a competitor of Gaussian, Inc. and that
 it will not use this program in any manner prohibited above.
 ---------------------------------------------------------------
  

 Cite this work as:
 Gaussian 16, Revision C.01,
 M. J. Frisch, G. W. Trucks, H. B. Schlegel, G. E. Scuseria, 
 M. A. Robb, J. R. Cheeseman, G. Scalmani, V. Barone, 
 G. A. Petersson, H. Nakatsuji, X. Li, M. Caricato, A. V. Marenich, 
 J. Bloino, B. G. Janesko, R. Gomperts, B. Mennucci, H. P. Hratchian, 
 J. V. Ortiz, A. F. Izmaylov, J. L. Sonnenberg, D. Williams-Young, 
 F. Ding, F. Lipparini, F. Egidi, J. Goings, B. Peng, A. Petrone, 
 T. Henderson, D. Ranasinghe, V. G. Zakrzewski, J. Gao, N. Rega, 
 G. Zheng, W. Liang, M. Hada, M. Ehara, K. Toyota, R. Fukuda, 
 J. Hasegawa, M. Ishida, T. Nakajima, Y. Honda, O. Kitao, H. Nakai, 
 T. Vreven, K. Throssell, J. A. Montgomery, Jr., J. E. Peralta, 
 F. Ogliaro, M. J. Bearpark, J. J. Heyd, E. N. Brothers, K. N. Kudin, 
 V. N. Staroverov, T. A. Keith, R. Kobayashi, J. Normand, 
 K. Raghavachari, A. P. Rendell, J. C. Burant, S. S. Iyengar, 
 J. Tomasi, M. Cossi, J. M. Millam, M. Klene, C. Adamo, R. Cammi, 
 J. W. Ochterski, R. L. Martin, K. Morokuma, O. Farkas, 
 J. B. Foresman, and D. J. Fox, Gaussian, Inc., Wallingford CT, 2019.
 
 ******************************************
 Gaussian 16:  ES64L-G16RevC.01  3-Jul-2019
                 3-Aug-2023 
 ******************************************
 --------------------------------------------
 # opt freq b3lyp/6-311g** scrf(solvent=CCl4)
 --------------------------------------------
 1/18=20,19=15,26=3,38=1/1,3;
 2/9=110,12=2,17=6,18=5,40=1/2;
 3/5=4,6=6,7=101,11=2,25=1,30=1,70=2201,71=1,72=11,74=-5/1,2,3;
 4//1;
 5/5=2,38=5,53=11/2;
 6/7=2,8=2,9=2,10=2,28=1/1;
 7//1,2,3,16;
 1/18=20,19=15,26=3/3(2);
 2/9=110/2;
 99//99;
 2/9=110/2;
 3/5=4,6=6,7=101,11=2,25=1,30=1,70=2205,71=1,72=11,74=-5/1,2,3;
 4/5=5,16=3,69=1/1;
 5/5=2,38=5,53=11/2;
 7//1,2,3,16;
 1/18=20,19=15,26=3/3(-5);
 2/9=110/2;
 6/7=2,8=2,9=2,10=2,19=2,28=1/1;
 99/9=1/99;
 -------------------
 Title Card Required
 -------------------
 Symbolic Z-matrix:
 Charge =  0 Multiplicity = 1
 C                    -2.28939   0.19673   0.03498 
 H                    -1.98084  -0.80119  -0.1971 
 H                    -1.99099   0.4392    1.03351 
 H                    -3.35382   0.26903  -0.04667 
 C                    -1.63098   1.17993  -0.95061 
 O                    -2.29839   2.39495  -1.3016 
 O                    -0.35218   0.87789  -1.51483 
 C                     0.67669   1.40559  -0.67348 
 H                     0.60295   0.96541   0.299 
 H                     1.63356   1.17959  -1.09565 
 H                     0.56342   2.46663  -0.59424 
 

 GradGradGradGradGradGradGradGradGradGradGradGradGradGradGradGradGradGrad
 Berny optimization.
 Initialization pass.
                           ----------------------------
                           !    Initial Parameters    !
                           ! (Angstroms and Degrees)  !
 --------------------------                            --------------------------
 ! Name  Definition              Value          Derivative Info.                !
 --------------------------------------------------------------------------------
 ! R1    R(1,2)                  1.07           estimate D2E/DX2                !
 ! R2    R(1,3)                  1.07           estimate D2E/DX2                !
 ! R3    R(1,4)                  1.07           estimate D2E/DX2                !
 ! R4    R(1,5)                  1.54           estimate D2E/DX2                !
 ! R5    R(5,6)                  1.43           estimate D2E/DX2                !
 ! R6    R(5,7)                  1.43           estimate D2E/DX2                !
 ! R7    R(7,8)                  1.43           estimate D2E/DX2                !
 ! R8    R(8,9)                  1.07           estimate D2E/DX2                !
 ! R9    R(8,10)                 1.07           estimate D2E/DX2                !
 ! R10   R(8,11)                 1.07           estimate D2E/DX2                !
 ! A1    A(2,1,3)              109.4712         estimate D2E/DX2                !
 ! A2    A(2,1,4)              109.4712         estimate D2E/DX2                !
 ! A3    A(2,1,5)              109.4712         estimate D2E/DX2                !
 ! A4    A(3,1,4)              109.4712         estimate D2E/DX2                !
 ! A5    A(3,1,5)              109.4712         estimate D2E/DX2                !
 ! A6    A(4,1,5)              109.4712         estimate D2E/DX2                !
 ! A7    A(1,5,6)              120.0            estimate D2E/DX2                !
 ! A8    A(1,5,7)              120.0            estimate D2E/DX2                !
 ! A9    A(6,5,7)              120.0            estimate D2E/DX2                !
 ! A10   A(5,7,8)              109.4712         estimate D2E/DX2                !
 ! A11   A(7,8,9)              109.4712         estimate D2E/DX2                !
 ! A12   A(7,8,10)             109.4712         estimate D2E/DX2                !
 ! A13   A(7,8,11)             109.4712         estimate D2E/DX2                !
 ! A14   A(9,8,10)             109.4712         estimate D2E/DX2                !
 ! A15   A(9,8,11)             109.4712         estimate D2E/DX2                !
 ! A16   A(10,8,11)            109.4712         estimate D2E/DX2                !
 ! D1    D(2,1,5,6)            150.0            estimate D2E/DX2                !
 ! D2    D(2,1,5,7)            -30.0            estimate D2E/DX2                !
 ! D3    D(3,1,5,6)            -90.0            estimate D2E/DX2                !
 ! D4    D(3,1,5,7)             90.0            estimate D2E/DX2                !
 ! D5    D(4,1,5,6)             30.0            estimate D2E/DX2                !
 ! D6    D(4,1,5,7)           -150.0            estimate D2E/DX2                !
 ! D7    D(1,5,7,8)            -90.0            estimate D2E/DX2                !
 ! D8    D(6,5,7,8)             90.0            estimate D2E/DX2                !
 ! D9    D(5,7,8,9)             60.0            estimate D2E/DX2                !
 ! D10   D(5,7,8,10)           180.0            estimate D2E/DX2                !
 ! D11   D(5,7,8,11)           -60.0            estimate D2E/DX2                !
 --------------------------------------------------------------------------------
 Trust Radius=3.00D-01 FncErr=1.00D-07 GrdErr=1.00D-06 EigMax=2.50D+02 EigMin=1.00D-04
 Number of steps in this run=     47 maximum allowed number of steps=    100.
 GradGradGradGradGradGradGradGradGradGradGradGradGradGradGradGradGradGrad

                          Input orientation:                          
 ---------------------------------------------------------------------
 Center     Atomic      Atomic             Coordinates (Angstroms)
 Number     Number       Type             X           Y           Z
 ---------------------------------------------------------------------
      1          6           0       -2.289393    0.196728    0.034982
      2          1           0       -1.980843   -0.801188   -0.197096
      3          1           0       -1.990986    0.439203    1.033511
      4          1           0       -3.353820    0.269033   -0.046671
      5          6           0       -1.630978    1.179933   -0.950612
      6          8           0       -2.298395    2.394950   -1.301595
      7          8           0       -0.352175    0.877892   -1.514825
      8          6           0        0.676692    1.405593   -0.673479
      9          1           0        0.602949    0.965415    0.298995
     10          1           0        1.633559    1.179590   -1.095652
     11          1           0        0.563422    2.466626   -0.594241
 ---------------------------------------------------------------------
                    Distance matrix (angstroms):
                    1          2          3          4          5
     1  C    0.000000
     2  H    1.070000   0.000000
     3  H    1.070000   1.747303   0.000000
     4  H    1.070000   1.747303   1.747303   0.000000
     5  C    1.540000   2.148263   2.148263   2.148263   0.000000
     6  O    2.572683   3.396477   3.061399   2.684824   1.430000
     7  O    2.572683   2.684824   3.061399   3.396477   1.430000
     8  C    3.280386   3.487021   3.311228   4.234346   2.335180
     9  H    3.004368   3.169065   2.746801   4.032425   2.568651
    10  H    4.199274   4.218386   4.268353   5.177202   3.267757
    11  H    3.699582   4.160482   3.644862   4.524823   2.568651
                    6          7          8          9         10
     6  O    0.000000
     7  O    2.476833   0.000000
     8  C    3.197577   1.430000   0.000000
     9  H    3.608775   2.051796   1.070000   0.000000
    10  H    4.120651   2.051796   1.070000   1.747303   0.000000
    11  H    2.948810   2.051796   1.070000   1.747303   1.747303
                   11
    11  H    0.000000
 Stoichiometry    C3H6O2
 Framework group  C1[X(C3H6O2)]
 Deg. of freedom    27
 Full point group                 C1      NOp   1
 Largest Abelian subgroup         C1      NOp   1
 Largest concise Abelian subgroup C1      NOp   1
                         Standard orientation:                         
 ---------------------------------------------------------------------
 Center     Atomic      Atomic             Coordinates (Angstroms)
 Number     Number       Type             X           Y           Z
 ---------------------------------------------------------------------
      1          6           0       -1.354801   -1.095417    0.104734
      2          1           0       -1.110636   -1.858355   -0.604638
      3          1           0       -1.178963   -1.459904    1.095254
      4          1           0       -2.385716   -0.828408    0.000710
      5          6           0       -0.475546    0.142938   -0.150192
      6          8           0       -0.971045    1.447872    0.160496
      7          8           0        0.836404   -0.012096   -0.697596
      8          6           0        1.780870   -0.167591    0.364809
      9          1           0        1.530175   -1.033657    0.940989
     10          1           0        2.762539   -0.283596   -0.044787
     11          1           0        1.756594    0.698128    0.993172
 ---------------------------------------------------------------------
 Rotational constants (GHZ):           7.2889807           4.0583394           3.0290485
 Standard basis: 6-311G(d,p) (5D, 7F)
 There are   131 symmetry adapted cartesian basis functions of A   symmetry.
 There are   126 symmetry adapted basis functions of A   symmetry.
   126 basis functions,   208 primitive gaussians,   131 cartesian basis functions
    20 alpha electrons       20 beta electrons
       nuclear repulsion energy       173.2462756572 Hartrees.
 NAtoms=   11 NActive=   11 NUniq=   11 SFac= 1.00D+00 NAtFMM=   60 NAOKFM=F Big=F
 Integral buffers will be    131072 words long.
 Raffenetti 2 integral format.
 Two-electron integral symmetry is turned on.
 ------------------------------------------------------------------------------
 Polarizable Continuum Model (PCM)
 =================================
 Model                : PCM.
 Atomic radii         : UFF (Universal Force Field).
 Polarization charges : Total charges.
 Charge compensation  : None.
 Solution method      : On-the-fly selection.
 Cavity type          : Scaled VdW (van der Waals Surface) (Alpha=1.100).
 Cavity algorithm     : GePol (No added spheres)
                        Default sphere list used, NSphG=   11.
                        Lebedev-Laikov grids with approx.  5.0 points / Ang**2.
                        Smoothing algorithm: York/Karplus (Gamma=1.0000).
                        Polarization charges: spherical gaussians, with
                                              point-specific exponents (IZeta= 3).
                        Self-potential: point-specific (ISelfS= 7).
                        Self-field    : sphere-specific E.n sum rule (ISelfD= 2).
 1st derivatives      : Analytical E(r).r(x)/FMM algorithm (CHGder, D1EAlg=3).
                        Cavity 1st derivative terms included.
 Solvent              : CarbonTetraChloride, Eps=   2.228000 Eps(inf)=   2.131892
 ------------------------------------------------------------------------------
 Spheres list:
 ISph  on   Nord     Re0    Alpha      Xe            Ye            Ze
    1   C      1    1.9255  1.100     -1.354801     -1.095417      0.104734
    2   H      2    1.4430  1.100     -1.110636     -1.858355     -0.604638
    3   H      3    1.4430  1.100     -1.178963     -1.459904      1.095254
    4   H      4    1.4430  1.100     -2.385716     -0.828408      0.000710
    5   C      5    1.9255  1.100     -0.475546      0.142938     -0.150192
    6   O      6    1.7500  1.100     -0.971045      1.447872      0.160496
    7   O      7    1.7500  1.100      0.836404     -0.012096     -0.697596
    8   C      8    1.9255  1.100      1.780870     -0.167591      0.364809
    9   H      9    1.4430  1.100      1.530175     -1.033657      0.940989
   10   H     10    1.4430  1.100      2.762539     -0.283596     -0.044787
   11   H     11    1.4430  1.100      1.756594      0.698128      0.993172
 ------------------------------------------------------------------------------
 One-electron integrals computed using PRISM.
 NBasis=   126 RedAO= T EigKep=  3.53D-03  NBF=   126
 NBsUse=   126 1.00D-06 EigRej= -1.00D+00 NBFU=   126
 ExpMin= 1.03D-01 ExpMax= 8.59D+03 ExpMxC= 1.30D+03 IAcc=3 IRadAn=         5 AccDes= 0.00D+00
 Harris functional with IExCor=  402 and IRadAn=       5 diagonalized for initial guess.
 HarFok:  IExCor=  402 AccDes= 0.00D+00 IRadAn=         5 IDoV= 1 UseB2=F ITyADJ=14
 ICtDFT=  3500011 ScaDFX=  1.000000  1.000000  1.000000  1.000000
 FoFCou: FMM=F IPFlag=           0 FMFlag=      100000 FMFlg1=           0
         NFxFlg=           0 DoJE=T BraDBF=F KetDBF=T FulRan=T
         wScrn=  0.000000 ICntrl=       500 IOpCl=  0 I1Cent=   200000004 NGrid=           0
         NMat0=    1 NMatS0=      1 NMatT0=    0 NMatD0=    1 NMtDS0=    0 NMtDT0=    0
 Petite list used in FoFCou.
 Keep R1 ints in memory in canonical form, NReq=41571322.
 Requested convergence on RMS density matrix=1.00D-08 within 128 cycles.
 Requested convergence on MAX density matrix=1.00D-06.
 Requested convergence on             energy=1.00D-06.
 No special actions if energy rises.
 Inv3:  Mode=1 IEnd=     3301203.
 Iteration    1 A*A^-1 deviation from unit magnitude is 2.89D-15 for   1021.
 Iteration    1 A*A^-1 deviation from orthogonality  is 2.10D-15 for    883      6.
 Iteration    1 A^-1*A deviation from unit magnitude is 2.89D-15 for   1043.
 Iteration    1 A^-1*A deviation from orthogonality  is 2.05D-15 for   1039    183.
 Error on total polarization charges =  0.00471
 SCF Done:  E(RB3LYP) =  -268.388984126     A.U. after   13 cycles
            NFock= 13  Conv=0.45D-08     -V/T= 2.0052

 **********************************************************************

            Population analysis using the SCF Density.

 **********************************************************************

 Orbital symmetries:
       Occupied  (A) (A) (A) (A) (A) (A) (A) (A) (A) (A) (A) (A)
                 (A) (A) (A) (A) (A) (A) (A) (A)
       Virtual   (A) (A) (A) (A) (A) (A) (A) (A) (A) (A) (A) (A)
                 (A) (A) (A) (A) (A) (A) (A) (A) (A) (A) (A) (A)
                 (A) (A) (A) (A) (A) (A) (A) (A) (A) (A) (A) (A)
                 (A) (A) (A) (A) (A) (A) (A) (A) (A) (A) (A) (A)
                 (A) (A) (A) (A) (A) (A) (A) (A) (A) (A) (A) (A)
                 (A) (A) (A) (A) (A) (A) (A) (A) (A) (A) (A) (A)
                 (A) (A) (A) (A) (A) (A) (A) (A) (A) (A) (A) (A)
                 (A) (A) (A) (A) (A) (A) (A) (A) (A) (A) (A) (A)
                 (A) (A) (A) (A) (A) (A) (A) (A) (A) (A)
 The electronic state is 1-A.
 Alpha  occ. eigenvalues --  -19.16583 -19.12253 -10.34144 -10.22739 -10.19611
 Alpha  occ. eigenvalues --   -1.07304  -0.94653  -0.77046  -0.71799  -0.58495
 Alpha  occ. eigenvalues --   -0.49367  -0.48747  -0.48409  -0.44364  -0.43685
 Alpha  occ. eigenvalues --   -0.40929  -0.37649  -0.31722  -0.30145  -0.27126
 Alpha virt. eigenvalues --   -0.07413   0.03493   0.07121   0.09294   0.10123
 Alpha virt. eigenvalues --    0.11224   0.11518   0.12548   0.15449   0.20918
 Alpha virt. eigenvalues --    0.23849   0.29412   0.30866   0.31564   0.34002
 Alpha virt. eigenvalues --    0.42492   0.42879   0.43238   0.47334   0.51894
 Alpha virt. eigenvalues --    0.53868   0.56155   0.56543   0.57882   0.58174
 Alpha virt. eigenvalues --    0.60045   0.65039   0.72207   0.74631   0.80566
 Alpha virt. eigenvalues --    0.84320   0.86580   0.93205   0.94254   1.01694
 Alpha virt. eigenvalues --    1.03960   1.10762   1.14354   1.26429   1.34326
 Alpha virt. eigenvalues --    1.38892   1.41659   1.43214   1.44978   1.45455
 Alpha virt. eigenvalues --    1.45857   1.48129   1.49527   1.51146   1.51792
 Alpha virt. eigenvalues --    1.57409   1.62604   1.67153   1.69855   1.73264
 Alpha virt. eigenvalues --    1.77972   1.83575   1.86831   1.97379   2.01459
 Alpha virt. eigenvalues --    2.10130   2.11049   2.19870   2.26841   2.31193
 Alpha virt. eigenvalues --    2.36486   2.40338   2.42688   2.45361   2.48568
 Alpha virt. eigenvalues --    2.49287   2.51544   2.52960   2.54123   2.63934
 Alpha virt. eigenvalues --    2.68546   2.70688   2.79218   2.85438   2.86105
 Alpha virt. eigenvalues --    2.87892   2.91636   3.03686   3.10585   3.13739
 Alpha virt. eigenvalues --    3.20061   3.27775   3.37871   3.78886   3.80056
 Alpha virt. eigenvalues --    3.81975   3.82384   3.93409   3.93915   4.05981
 Alpha virt. eigenvalues --    4.83655   4.89881   4.92149   5.12072   5.30278
 Alpha virt. eigenvalues --    5.59857  23.43785  23.89639  23.92131  49.80815
 Alpha virt. eigenvalues --   49.84929
          Condensed to atoms (all electrons):
               1          2          3          4          5          6
     1  C    4.974423   0.375811   0.390404   0.388073   0.271208  -0.071369
     2  H    0.375811   0.540322  -0.019973  -0.021539  -0.027170   0.003435
     3  H    0.390404  -0.019973   0.508069  -0.014393  -0.020170   0.000094
     4  H    0.388073  -0.021539  -0.014393   0.501636  -0.022540   0.006904
     5  C    0.271208  -0.027170  -0.020170  -0.022540   4.797546   0.497246
     6  O   -0.071369   0.003435   0.000094   0.006904   0.497246   8.016089
     7  O   -0.068028   0.007503   0.001020   0.003761   0.291528  -0.048669
     8  C   -0.001683  -0.000572   0.000108   0.000197  -0.077514  -0.005588
     9  H    0.007706  -0.000747   0.000389  -0.000407  -0.010696  -0.000678
    10  H   -0.000588  -0.000097   0.000058   0.000029   0.005619  -0.000186
    11  H    0.000163   0.000392  -0.000241  -0.000120  -0.001312   0.011199
               7          8          9         10         11
     1  C   -0.068028  -0.001683   0.007706  -0.000588   0.000163
     2  H    0.007503  -0.000572  -0.000747  -0.000097   0.000392
     3  H    0.001020   0.000108   0.000389   0.000058  -0.000241
     4  H    0.003761   0.000197  -0.000407   0.000029  -0.000120
     5  C    0.291528  -0.077514  -0.010696   0.005619  -0.001312
     6  O   -0.048669  -0.005588  -0.000678  -0.000186   0.011199
     7  O    7.985266   0.258262  -0.039517  -0.018347  -0.039829
     8  C    0.258262   4.741174   0.402868   0.403674   0.399527
     9  H   -0.039517   0.402868   0.599921  -0.028279  -0.043606
    10  H   -0.018347   0.403674  -0.028279   0.527996  -0.026334
    11  H   -0.039829   0.399527  -0.043606  -0.026334   0.573577
 Mulliken charges:
               1
     1  C   -0.266122
     2  H    0.142634
     3  H    0.154634
     4  H    0.158399
     5  C    0.296254
     6  O   -0.408478
     7  O   -0.332951
     8  C   -0.120455
     9  H    0.113046
    10  H    0.136456
    11  H    0.126583
 Sum of Mulliken charges =  -0.00000
 Mulliken charges with hydrogens summed into heavy atoms:
               1
     1  C    0.189546
     5  C    0.296254
     6  O   -0.408478
     7  O   -0.332951
     8  C    0.255629
 Electronic spatial extent (au):  <R**2>=            448.1577
 Charge=             -0.0000 electrons
 Dipole moment (field-independent basis, Debye):
    X=              1.2255    Y=             -3.9990    Z=              1.1768  Tot=              4.3450
 Quadrupole moment (field-independent basis, Debye-Ang):
   XX=            -26.4037   YY=            -33.6690   ZZ=            -30.5955
   XY=              3.8456   XZ=              2.2086   YZ=             -0.7741
 Traceless Quadrupole moment (field-independent basis, Debye-Ang):
   XX=              3.8190   YY=             -3.4462   ZZ=             -0.3728
   XY=              3.8456   XZ=              2.2086   YZ=             -0.7741
 Octapole moment (field-independent basis, Debye-Ang**2):
  XXX=              8.8241  YYY=             -5.6490  ZZZ=              0.1011  XYY=              3.1476
  XXY=             -4.7047  XXZ=              0.2661  XZZ=             -0.6892  YZZ=             -0.0776
  YYZ=             -0.4213  XYZ=              1.0020
 Hexadecapole moment (field-independent basis, Debye-Ang**3):
 XXXX=           -294.5932 YYYY=           -178.5968 ZZZZ=            -64.1228 XXXY=              1.0245
 XXXZ=             -1.1797 YYYX=              3.9048 YYYZ=              0.5647 ZZZX=             -1.2640
 ZZZY=             -0.6077 XXYY=            -87.2163 XXZZ=            -66.2638 YYZZ=            -36.7896
 XXYZ=             -0.4400 YYXZ=              0.7837 ZZXY=              0.1373
 N-N= 1.732462756572D+02 E-N=-9.752996157264D+02  KE= 2.670068195830D+02
 D1PCM: PCM CHGder 1st derivatives, ID1Alg=3 FixD1E=F DoIter=F DoCFld=F I1PDM=0.
 Calling FoFJK, ICntrl=      2127 FMM=F ISym2X=0 I1Cent= 0 IOpClX= 0 NMat=1 NMatS=1 NMatT=0.
 ***** Axes restored to original set *****
 -------------------------------------------------------------------
 Center     Atomic                   Forces (Hartrees/Bohr)
 Number     Number              X              Y              Z
 -------------------------------------------------------------------
      1        6           0.017172288    0.016906419   -0.032008349
      2        1           0.006023302   -0.013699449   -0.001566591
      3        1           0.005300137    0.004229081    0.014511141
      4        1          -0.012004295    0.004745185   -0.000857038
      5        6          -0.057620134    0.128541896   -0.049029611
      6        8           0.088320617   -0.153368661    0.041948015
      7        8          -0.056043772    0.007081859    0.018934408
      8        6          -0.002365939    0.001833365    0.000021964
      9        1           0.002405182   -0.006388304    0.015949238
     10        1           0.008802090   -0.005644452   -0.009039668
     11        1           0.000010524    0.015763061    0.001136490
 -------------------------------------------------------------------
 Cartesian Forces:  Max     0.153368661 RMS     0.043304768

 GradGradGradGradGradGradGradGradGradGradGradGradGradGradGradGradGradGrad
 Berny optimization.
 FormGI is forming the generalized inverse of G from B-inverse, IUseBI=4.
 Internal  Forces:  Max     0.181830500 RMS     0.032467475
 Search for a local minimum.
 Step number   1 out of a maximum of   47
 All quantities printed in internal units (Hartrees-Bohrs-Radians)
 Mixed Optimization -- RFO/linear search
 Second derivative matrix not updated -- first step.
 ITU=  0
     Eigenvalues ---    0.00237   0.00501   0.01295   0.01295   0.07243
     Eigenvalues ---    0.07243   0.10344   0.10344   0.16000   0.16000
     Eigenvalues ---    0.16000   0.16000   0.16000   0.16000   0.25000
     Eigenvalues ---    0.25000   0.25000   0.28519   0.37230   0.37230
     Eigenvalues ---    0.37230   0.37230   0.37230   0.37230   0.40989
     Eigenvalues ---    0.40989   0.40989
 RFO step:  Lambda=-8.11799358D-02 EMin= 2.36824210D-03
 Linear search not attempted -- first point.
 Maximum step size (   0.300) exceeded in Quadratic search.
    -- Step size scaled by   0.728
 Iteration  1 RMS(Cart)=  0.04759563 RMS(Int)=  0.01156490
 Iteration  2 RMS(Cart)=  0.01095954 RMS(Int)=  0.00007069
 Iteration  3 RMS(Cart)=  0.00001591 RMS(Int)=  0.00006857
 Iteration  4 RMS(Cart)=  0.00000000 RMS(Int)=  0.00006857
 Variable       Old X    -DE/DX   Delta X   Delta X   Delta X     New X
                                 (Linear)    (Quad)   (Total)
    R1        2.02201   0.01485   0.00000   0.02382   0.02382   2.04583
    R2        2.02201   0.01598   0.00000   0.02564   0.02564   2.04764
    R3        2.02201   0.01233   0.00000   0.01978   0.01978   2.04179
    R4        2.91018  -0.02759   0.00000  -0.05478  -0.05478   2.85540
    R5        2.70231  -0.18183   0.00000  -0.26939  -0.26939   2.43292
    R6        2.70231  -0.05552   0.00000  -0.08225  -0.08225   2.62006
    R7        2.70231   0.01317   0.00000   0.01951   0.01951   2.72182
    R8        2.02201   0.01696   0.00000   0.02721   0.02721   2.04922
    R9        2.02201   0.01263   0.00000   0.02027   0.02027   2.04227
   R10        2.02201   0.01571   0.00000   0.02520   0.02520   2.04721
    A1        1.91063  -0.00043   0.00000  -0.00196  -0.00195   1.90868
    A2        1.91063   0.00306   0.00000   0.01227   0.01228   1.92292
    A3        1.91063   0.00180   0.00000   0.00661   0.00662   1.91725
    A4        1.91063   0.00096   0.00000   0.00052   0.00044   1.91108
    A5        1.91063  -0.00190   0.00000  -0.00726  -0.00729   1.90334
    A6        1.91063  -0.00348   0.00000  -0.01018  -0.01021   1.90042
    A7        2.09440   0.00934   0.00000   0.02052   0.02051   2.11491
    A8        2.09440  -0.00644   0.00000  -0.01415  -0.01415   2.08024
    A9        2.09440  -0.00290   0.00000  -0.00637  -0.00637   2.08802
   A10        1.91063   0.01516   0.00000   0.03329   0.03329   1.94393
   A11        1.91063   0.00657   0.00000   0.02077   0.02069   1.93132
   A12        1.91063  -0.01080   0.00000  -0.03437  -0.03436   1.87628
   A13        1.91063   0.00325   0.00000   0.01063   0.01050   1.92114
   A14        1.91063  -0.00013   0.00000  -0.00206  -0.00200   1.90863
   A15        1.91063  -0.00005   0.00000   0.00344   0.00322   1.91385
   A16        1.91063   0.00117   0.00000   0.00159   0.00156   1.91220
    D1        2.61799   0.00057   0.00000   0.00068   0.00067   2.61866
    D2       -0.52360   0.00115   0.00000   0.00558   0.00558  -0.51802
    D3       -1.57080  -0.00002   0.00000  -0.00212  -0.00216  -1.57296
    D4        1.57080   0.00056   0.00000   0.00278   0.00275   1.57355
    D5        0.52360  -0.00214   0.00000  -0.01216  -0.01213   0.51147
    D6       -2.61799  -0.00156   0.00000  -0.00726  -0.00722  -2.62521
    D7       -1.57080  -0.00220   0.00000  -0.01719  -0.01716  -1.58796
    D8        1.57080  -0.00162   0.00000  -0.01230  -0.01232   1.55847
    D9        1.04720   0.00298   0.00000   0.01203   0.01225   1.05945
   D10        3.14159   0.00022   0.00000   0.00117   0.00109  -3.14050
   D11       -1.04720  -0.00297   0.00000  -0.01142  -0.01157  -1.05877
         Item               Value     Threshold  Converged?
 Maximum Force            0.181831     0.000450     NO 
 RMS     Force            0.032467     0.000300     NO 
 Maximum Displacement     0.203929     0.001800     NO 
 RMS     Displacement     0.055588     0.001200     NO 
 Predicted change in Energy=-4.126938D-02
 GradGradGradGradGradGradGradGradGradGradGradGradGradGradGradGradGradGrad

                          Input orientation:                          
 ---------------------------------------------------------------------
 Center     Atomic      Atomic             Coordinates (Angstroms)
 Number     Number       Type             X           Y           Z
 ---------------------------------------------------------------------
      1          6           0       -2.287826    0.209403    0.013144
      2          1           0       -1.968864   -0.797652   -0.223785
      3          1           0       -1.986963    0.452713    1.025270
      4          1           0       -3.361822    0.290119   -0.073069
      5          6           0       -1.645542    1.188976   -0.941352
      6          8           0       -2.234283    2.287035   -1.265644
      7          8           0       -0.402506    0.892750   -1.479331
      8          6           0        0.661615    1.417002   -0.662418
      9          1           0        0.628839    0.985285    0.331801
     10          1           0        1.595970    1.152924   -1.136979
     11          1           0        0.581414    2.495218   -0.594321
 ---------------------------------------------------------------------
                    Distance matrix (angstroms):
                    1          2          3          4          5
     1  C    0.000000
     2  H    1.082604   0.000000
     3  H    1.083566   1.767450   0.000000
     4  H    1.080469   1.773779   1.767207   0.000000
     5  C    1.511012   2.136851   2.127499   2.123082   0.000000
     6  O    2.440230   3.266682   2.945197   2.584812   1.287445
     7  O    2.499775   2.624372   2.996191   3.331409   1.386474
     8  C    3.257896   3.466484   3.285287   4.219626   2.335117
     9  H    3.034875   3.199312   2.758070   4.070939   2.614424
    10  H    4.158953   4.164939   4.242997   5.143543   3.247610
    11  H    3.718400   4.181412   3.659434   4.547886   2.605000
                    6          7          8          9         10
     6  O    0.000000
     7  O    2.311947   0.000000
     8  C    3.083353   1.440327   0.000000
     9  H    3.527584   2.086248   1.084401   0.000000
    10  H    3.996699   2.044212   1.080724   1.766567   0.000000
    11  H    2.902096   2.078279   1.083337   1.771962   1.767924
                   11
    11  H    0.000000
 Stoichiometry    C3H6O2
 Framework group  C1[X(C3H6O2)]
 Deg. of freedom    27
 Full point group                 C1      NOp   1
 Largest Abelian subgroup         C1      NOp   1
 Largest concise Abelian subgroup C1      NOp   1
                         Standard orientation:                         
 ---------------------------------------------------------------------
 Center     Atomic      Atomic             Coordinates (Angstroms)
 Number     Number       Type             X           Y           Z
 ---------------------------------------------------------------------
      1          6           0       -1.378093   -1.012833    0.099059
      2          1           0       -1.162360   -1.780262   -0.633434
      3          1           0       -1.196879   -1.404029    1.093163
      4          1           0       -2.408729   -0.698931    0.017396
      5          6           0       -0.483015    0.182531   -0.131369
      6          8           0       -0.870779    1.373077    0.168218
      7          8           0        0.775172   -0.010783   -0.680827
      8          6           0        1.769828   -0.209367    0.341800
      9          1           0        1.538349   -1.086900    0.935330
     10          1           0        2.720272   -0.351768   -0.152510
     11          1           0        1.821880    0.661554    0.983988
 ---------------------------------------------------------------------
 Rotational constants (GHZ):           7.9928809           4.2113007           3.2120632
 Standard basis: 6-311G(d,p) (5D, 7F)
 There are   131 symmetry adapted cartesian basis functions of A   symmetry.
 There are   126 symmetry adapted basis functions of A   symmetry.
   126 basis functions,   208 primitive gaussians,   131 cartesian basis functions
    20 alpha electrons       20 beta electrons
       nuclear repulsion energy       178.0837037841 Hartrees.
 NAtoms=   11 NActive=   11 NUniq=   11 SFac= 1.00D+00 NAtFMM=   60 NAOKFM=F Big=F
 Integral buffers will be    131072 words long.
 Raffenetti 2 integral format.
 Two-electron integral symmetry is turned on.
 ------------------------------------------------------------------------------
 Polarizable Continuum Model (PCM)
 =================================
 Model                : PCM.
 Atomic radii         : UFF (Universal Force Field).
 Polarization charges : Total charges.
 Charge compensation  : None.
 Solution method      : On-the-fly selection.
 Cavity type          : Scaled VdW (van der Waals Surface) (Alpha=1.100).
 Cavity algorithm     : GePol (No added spheres)
                        Default sphere list used, NSphG=   11.
                        Lebedev-Laikov grids with approx.  5.0 points / Ang**2.
                        Smoothing algorithm: York/Karplus (Gamma=1.0000).
                        Polarization charges: spherical gaussians, with
                                              point-specific exponents (IZeta= 3).
                        Self-potential: point-specific (ISelfS= 7).
                        Self-field    : sphere-specific E.n sum rule (ISelfD= 2).
 1st derivatives      : Analytical E(r).r(x)/FMM algorithm (CHGder, D1EAlg=3).
                        Cavity 1st derivative terms included.
 Solvent              : CarbonTetraChloride, Eps=   2.228000 Eps(inf)=   2.131892
 ------------------------------------------------------------------------------
 Spheres list:
 ISph  on   Nord     Re0    Alpha      Xe            Ye            Ze
    1   C      1    1.9255  1.100     -1.378093     -1.012833      0.099059
    2   H      2    1.4430  1.100     -1.162360     -1.780262     -0.633434
    3   H      3    1.4430  1.100     -1.196879     -1.404029      1.093163
    4   H      4    1.4430  1.100     -2.408729     -0.698931      0.017396
    5   C      5    1.9255  1.100     -0.483015      0.182531     -0.131369
    6   O      6    1.7500  1.100     -0.870779      1.373077      0.168218
    7   O      7    1.7500  1.100      0.775172     -0.010783     -0.680827
    8   C      8    1.9255  1.100      1.769828     -0.209367      0.341800
    9   H      9    1.4430  1.100      1.538349     -1.086900      0.935330
   10   H     10    1.4430  1.100      2.720272     -0.351768     -0.152510
   11   H     11    1.4430  1.100      1.821880      0.661554      0.983988
 ------------------------------------------------------------------------------
 One-electron integrals computed using PRISM.
 NBasis=   126 RedAO= T EigKep=  3.17D-03  NBF=   126
 NBsUse=   126 1.00D-06 EigRej= -1.00D+00 NBFU=   126
 Initial guess from the checkpoint file:  "/kimariyb/g16/scratch/Gau-39616.chk"
 B after Tr=     0.000000   -0.000000   -0.000000
         Rot=    0.999835   -0.006230   -0.007181    0.015447 Ang=  -2.08 deg.
 ExpMin= 1.03D-01 ExpMax= 8.59D+03 ExpMxC= 1.30D+03 IAcc=3 IRadAn=         5 AccDes= 0.00D+00
 Harris functional with IExCor=  402 and IRadAn=       5 diagonalized for initial guess.
 HarFok:  IExCor=  402 AccDes= 0.00D+00 IRadAn=         5 IDoV= 1 UseB2=F ITyADJ=14
 ICtDFT=  3500011 ScaDFX=  1.000000  1.000000  1.000000  1.000000
 FoFCou: FMM=F IPFlag=           0 FMFlag=      100000 FMFlg1=           0
         NFxFlg=           0 DoJE=T BraDBF=F KetDBF=T FulRan=T
         wScrn=  0.000000 ICntrl=       500 IOpCl=  0 I1Cent=   200000004 NGrid=           0
         NMat0=    1 NMatS0=      1 NMatT0=    0 NMatD0=    1 NMtDS0=    0 NMtDT0=    0
 Petite list used in FoFCou.
 Keep R1 ints in memory in canonical form, NReq=41571322.
 Requested convergence on RMS density matrix=1.00D-08 within 128 cycles.
 Requested convergence on MAX density matrix=1.00D-06.
 Requested convergence on             energy=1.00D-06.
 No special actions if energy rises.
 Inv3:  Mode=1 IEnd=     3201267.
 Iteration    1 A*A^-1 deviation from unit magnitude is 3.44D-15 for    468.
 Iteration    1 A*A^-1 deviation from orthogonality  is 2.21D-15 for    992    153.
 Iteration    1 A^-1*A deviation from unit magnitude is 2.78D-15 for    468.
 Iteration    1 A^-1*A deviation from orthogonality  is 2.53D-15 for    928    368.
 Error on total polarization charges =  0.00489
 SCF Done:  E(RB3LYP) =  -268.436696012     A.U. after   11 cycles
            NFock= 11  Conv=0.65D-08     -V/T= 2.0043
 D1PCM: PCM CHGder 1st derivatives, ID1Alg=3 FixD1E=F DoIter=F DoCFld=F I1PDM=0.
 Calling FoFJK, ICntrl=      2127 FMM=F ISym2X=0 I1Cent= 0 IOpClX= 0 NMat=1 NMatS=1 NMatT=0.
 ***** Axes restored to original set *****
 -------------------------------------------------------------------
 Center     Atomic                   Forces (Hartrees/Bohr)
 Number     Number              X              Y              Z
 -------------------------------------------------------------------
      1        6           0.009575378    0.001312857   -0.015315205
      2        1           0.001876672   -0.005895300    0.001336992
      3        1           0.001723265    0.000699373    0.006331806
      4        1          -0.004991730    0.001874586    0.001220555
      5        6          -0.043142443    0.090061608   -0.032057213
      6        8           0.049085994   -0.088404642    0.024829099
      7        8          -0.017756327   -0.000636312    0.013976780
      8        6          -0.000036557   -0.000125977   -0.002785251
      9        1           0.000852806   -0.002904417    0.006056750
     10        1           0.003123232   -0.002326606   -0.003607869
     11        1          -0.000310290    0.006344830    0.000013555
 -------------------------------------------------------------------
 Cartesian Forces:  Max     0.090061608 RMS     0.026351950

 GradGradGradGradGradGradGradGradGradGradGradGradGradGradGradGradGradGrad
 Berny optimization.
 Using GEDIIS/GDIIS optimizer.
 FormGI is forming the generalized inverse of G from B-inverse, IUseBI=4.
 Internal  Forces:  Max     0.104101661 RMS     0.017885169
 Search for a local minimum.
 Step number   2 out of a maximum of   47
 All quantities printed in internal units (Hartrees-Bohrs-Radians)
 Mixed Optimization -- RFO/linear search
 Update second derivatives using D2CorX and points    1    2
 DE= -4.77D-02 DEPred=-4.13D-02 R= 1.16D+00
 TightC=F SS=  1.41D+00  RLast= 3.02D-01 DXNew= 5.0454D-01 9.0477D-01
 Trust test= 1.16D+00 RLast= 3.02D-01 DXMaxT set to 5.05D-01
 ITU=  1  0
 Use linear search instead of GDIIS.
     Eigenvalues ---    0.00237   0.00495   0.01295   0.01295   0.07219
     Eigenvalues ---    0.07343   0.10219   0.10511   0.15924   0.16000
     Eigenvalues ---    0.16000   0.16000   0.16000   0.16138   0.22671
     Eigenvalues ---    0.25000   0.25071   0.28590   0.31749   0.37230
     Eigenvalues ---    0.37230   0.37230   0.37230   0.37231   0.37557
     Eigenvalues ---    0.40989   0.43775
 RFO step:  Lambda=-4.34386350D-03 EMin= 2.36813095D-03
 Quartic linear search produced a step of  0.59864.
 Iteration  1 RMS(Cart)=  0.04763098 RMS(Int)=  0.00278127
 Iteration  2 RMS(Cart)=  0.00335889 RMS(Int)=  0.00011066
 Iteration  3 RMS(Cart)=  0.00000430 RMS(Int)=  0.00011052
 Iteration  4 RMS(Cart)=  0.00000000 RMS(Int)=  0.00011052
 Variable       Old X    -DE/DX   Delta X   Delta X   Delta X     New X
                                 (Linear)    (Quad)   (Total)
    R1        2.04583   0.00574   0.01426  -0.00779   0.00647   2.05229
    R2        2.04764   0.00655   0.01535  -0.00681   0.00853   2.05618
    R3        2.04179   0.00500   0.01184  -0.00549   0.00636   2.04815
    R4        2.85540  -0.00623  -0.03279   0.04982   0.01702   2.87242
    R5        2.43292  -0.10410  -0.16127  -0.05305  -0.21431   2.21860
    R6        2.62006  -0.01804  -0.04924   0.03684  -0.01240   2.60766
    R7        2.72182   0.00285   0.01168  -0.01425  -0.00257   2.71925
    R8        2.04922   0.00668   0.01629  -0.00840   0.00789   2.05711
    R9        2.04227   0.00485   0.01213  -0.00677   0.00536   2.04763
   R10        2.04721   0.00634   0.01509  -0.00713   0.00795   2.05516
    A1        1.90868  -0.00209  -0.00117  -0.01765  -0.01890   1.88978
    A2        1.92292   0.00030   0.00735  -0.02096  -0.01380   1.90912
    A3        1.91725   0.00329   0.00396   0.01829   0.02211   1.93936
    A4        1.91108  -0.00112   0.00027  -0.01271  -0.01255   1.89853
    A5        1.90334  -0.00013  -0.00437   0.01318   0.00871   1.91206
    A6        1.90042  -0.00026  -0.00611   0.02025   0.01398   1.91440
    A7        2.11491   0.00840   0.01228   0.01897   0.03123   2.14613
    A8        2.08024  -0.01182  -0.00847  -0.05088  -0.05937   2.02087
    A9        2.08802   0.00341  -0.00381   0.03197   0.02814   2.11616
   A10        1.94393   0.01200   0.01993   0.02048   0.04041   1.98434
   A11        1.93132   0.00182   0.01239  -0.02812  -0.01588   1.91545
   A12        1.87628  -0.00391  -0.02057   0.03833   0.01778   1.89406
   A13        1.92114   0.00048   0.00629  -0.01895  -0.01284   1.90830
   A14        1.90863   0.00018  -0.00120   0.00810   0.00696   1.91559
   A15        1.91385   0.00058   0.00193  -0.00521  -0.00361   1.91024
   A16        1.91220   0.00078   0.00093   0.00701   0.00792   1.92012
    D1        2.61866   0.00034   0.00040   0.01404   0.01449   2.63315
    D2       -0.51802   0.00100   0.00334  -0.00054   0.00285  -0.51517
    D3       -1.57296  -0.00030  -0.00129   0.01162   0.01031  -1.56265
    D4        1.57355   0.00036   0.00165  -0.00296  -0.00133   1.57222
    D5        0.51147  -0.00188  -0.00726   0.01592   0.00863   0.52010
    D6       -2.62521  -0.00122  -0.00432   0.00134  -0.00301  -2.62822
    D7       -1.58796  -0.00197  -0.01027   0.06490   0.05464  -1.53332
    D8        1.55847  -0.00133  -0.00738   0.05058   0.04320   1.60167
    D9        1.05945   0.00128   0.00734  -0.01269  -0.00504   1.05441
   D10       -3.14050   0.00015   0.00065   0.00438   0.00497  -3.13553
   D11       -1.05877  -0.00097  -0.00693   0.02493   0.01775  -1.04101
         Item               Value     Threshold  Converged?
 Maximum Force            0.104102     0.000450     NO 
 RMS     Force            0.017885     0.000300     NO 
 Maximum Displacement     0.106010     0.001800     NO 
 RMS     Displacement     0.048886     0.001200     NO 
 Predicted change in Energy=-1.704882D-02
 GradGradGradGradGradGradGradGradGradGradGradGradGradGradGradGradGradGrad

                          Input orientation:                          
 ---------------------------------------------------------------------
 Center     Atomic      Atomic             Coordinates (Angstroms)
 Number     Number       Type             X           Y           Z
 ---------------------------------------------------------------------
      1          6           0       -2.267268    0.232913    0.001271
      2          1           0       -1.912766   -0.770299   -0.216326
      3          1           0       -1.968996    0.487565    1.016215
      4          1           0       -3.349182    0.253292   -0.059910
      5          6           0       -1.680305    1.243891   -0.970253
      6          8           0       -2.235029    2.232305   -1.276316
      7          8           0       -0.434002    0.936354   -1.476528
      8          6           0        0.653789    1.402693   -0.658077
      9          1           0        0.593051    0.947264    0.328784
     10          1           0        1.586563    1.123449   -1.133536
     11          1           0        0.594178    2.484346   -0.562007
 ---------------------------------------------------------------------
                    Distance matrix (angstroms):
                    1          2          3          4          5
     1  C    0.000000
     2  H    1.086027   0.000000
     3  H    1.088083   1.761971   0.000000
     4  H    1.083834   1.770733   1.765741   0.000000
     5  C    1.520021   2.163193   2.145093   2.143633   0.000000
     6  O    2.372939   3.200479   2.893197   2.576330   1.174034
     7  O    2.457556   2.586023   2.961652   3.312349   1.379914
     8  C    3.214919   3.391791   3.243411   4.207458   2.360226
     9  H    2.966309   3.086468   2.692206   4.021677   2.635077
    10  H    4.114955   4.083241   4.203306   5.125566   3.273163
    11  H    3.684305   4.122738   3.612171   4.558485   2.622721
                    6          7          8          9         10
     6  O    0.000000
     7  O    2.227840   0.000000
     8  C    3.068509   1.438966   0.000000
     9  H    3.496529   2.077043   1.088577   0.000000
    10  H    3.981773   2.057993   1.083562   1.776650   0.000000
    11  H    2.928852   2.071178   1.087545   1.776550   1.778627
                   11
    11  H    0.000000
 Stoichiometry    C3H6O2
 Framework group  C1[X(C3H6O2)]
 Deg. of freedom    27
 Full point group                 C1      NOp   1
 Largest Abelian subgroup         C1      NOp   1
 Largest concise Abelian subgroup C1      NOp   1
                         Standard orientation:                         
 ---------------------------------------------------------------------
 Center     Atomic      Atomic             Coordinates (Angstroms)
 Number     Number       Type             X           Y           Z
 ---------------------------------------------------------------------
      1          6           0       -1.333698   -1.020409    0.075229
      2          1           0       -1.080999   -1.770525   -0.668360
      3          1           0       -1.142397   -1.439218    1.061093
      4          1           0       -2.387147   -0.777645   -0.002279
      5          6           0       -0.502911    0.238546   -0.112615
      6          8           0       -0.885395    1.307071    0.187916
      7          8           0        0.751279    0.054348   -0.657812
      8          6           0        1.771226   -0.222972    0.318624
      9          1           0        1.524952   -1.135460    0.858729
     10          1           0        2.716524   -0.346083   -0.196508
     11          1           0        1.834293    0.606588    1.019058
 ---------------------------------------------------------------------
 Rotational constants (GHZ):           8.3582331           4.3015278           3.2919797
 Standard basis: 6-311G(d,p) (5D, 7F)
 There are   131 symmetry adapted cartesian basis functions of A   symmetry.
 There are   126 symmetry adapted basis functions of A   symmetry.
   126 basis functions,   208 primitive gaussians,   131 cartesian basis functions
    20 alpha electrons       20 beta electrons
       nuclear repulsion energy       181.1432189119 Hartrees.
 NAtoms=   11 NActive=   11 NUniq=   11 SFac= 1.00D+00 NAtFMM=   60 NAOKFM=F Big=F
 Integral buffers will be    131072 words long.
 Raffenetti 2 integral format.
 Two-electron integral symmetry is turned on.
 ------------------------------------------------------------------------------
 Polarizable Continuum Model (PCM)
 =================================
 Model                : PCM.
 Atomic radii         : UFF (Universal Force Field).
 Polarization charges : Total charges.
 Charge compensation  : None.
 Solution method      : On-the-fly selection.
 Cavity type          : Scaled VdW (van der Waals Surface) (Alpha=1.100).
 Cavity algorithm     : GePol (No added spheres)
                        Default sphere list used, NSphG=   11.
                        Lebedev-Laikov grids with approx.  5.0 points / Ang**2.
                        Smoothing algorithm: York/Karplus (Gamma=1.0000).
                        Polarization charges: spherical gaussians, with
                                              point-specific exponents (IZeta= 3).
                        Self-potential: point-specific (ISelfS= 7).
                        Self-field    : sphere-specific E.n sum rule (ISelfD= 2).
 1st derivatives      : Analytical E(r).r(x)/FMM algorithm (CHGder, D1EAlg=3).
                        Cavity 1st derivative terms included.
 Solvent              : CarbonTetraChloride, Eps=   2.228000 Eps(inf)=   2.131892
 ------------------------------------------------------------------------------
 Spheres list:
 ISph  on   Nord     Re0    Alpha      Xe            Ye            Ze
    1   C      1    1.9255  1.100     -1.333698     -1.020409      0.075229
    2   H      2    1.4430  1.100     -1.080999     -1.770525     -0.668360
    3   H      3    1.4430  1.100     -1.142397     -1.439218      1.061093
    4   H      4    1.4430  1.100     -2.387147     -0.777645     -0.002279
    5   C      5    1.9255  1.100     -0.502911      0.238546     -0.112615
    6   O      6    1.7500  1.100     -0.885395      1.307071      0.187916
    7   O      7    1.7500  1.100      0.751279      0.054348     -0.657812
    8   C      8    1.9255  1.100      1.771226     -0.222972      0.318624
    9   H      9    1.4430  1.100      1.524952     -1.135460      0.858729
   10   H     10    1.4430  1.100      2.716524     -0.346083     -0.196508
   11   H     11    1.4430  1.100      1.834293      0.606588      1.019058
 ------------------------------------------------------------------------------
 One-electron integrals computed using PRISM.
 NBasis=   126 RedAO= T EigKep=  3.19D-03  NBF=   126
 NBsUse=   126 1.00D-06 EigRej= -1.00D+00 NBFU=   126
 Initial guess from the checkpoint file:  "/kimariyb/g16/scratch/Gau-39616.chk"
 B after Tr=    -0.000000    0.000000   -0.000000
         Rot=    0.999809   -0.017994   -0.002159   -0.007296 Ang=  -2.24 deg.
 ExpMin= 1.03D-01 ExpMax= 8.59D+03 ExpMxC= 1.30D+03 IAcc=3 IRadAn=         5 AccDes= 0.00D+00
 Harris functional with IExCor=  402 and IRadAn=       5 diagonalized for initial guess.
 HarFok:  IExCor=  402 AccDes= 0.00D+00 IRadAn=         5 IDoV= 1 UseB2=F ITyADJ=14
 ICtDFT=  3500011 ScaDFX=  1.000000  1.000000  1.000000  1.000000
 FoFCou: FMM=F IPFlag=           0 FMFlag=      100000 FMFlg1=           0
         NFxFlg=           0 DoJE=T BraDBF=F KetDBF=T FulRan=T
         wScrn=  0.000000 ICntrl=       500 IOpCl=  0 I1Cent=   200000004 NGrid=           0
         NMat0=    1 NMatS0=      1 NMatT0=    0 NMatD0=    1 NMtDS0=    0 NMtDT0=    0
 Petite list used in FoFCou.
 Keep R1 ints in memory in canonical form, NReq=41571322.
 Requested convergence on RMS density matrix=1.00D-08 within 128 cycles.
 Requested convergence on MAX density matrix=1.00D-06.
 Requested convergence on             energy=1.00D-06.
 No special actions if energy rises.
 Inv3:  Mode=1 IEnd=     3127323.
 Iteration    1 A*A^-1 deviation from unit magnitude is 3.44D-15 for   1018.
 Iteration    1 A*A^-1 deviation from orthogonality  is 1.85D-15 for   1007    369.
 Iteration    1 A^-1*A deviation from unit magnitude is 3.44D-15 for   1018.
 Iteration    1 A^-1*A deviation from orthogonality  is 2.54D-15 for    783    556.
 Error on total polarization charges =  0.00490
 SCF Done:  E(RB3LYP) =  -268.446238829     A.U. after   11 cycles
            NFock= 11  Conv=0.56D-08     -V/T= 2.0029
 D1PCM: PCM CHGder 1st derivatives, ID1Alg=3 FixD1E=F DoIter=F DoCFld=F I1PDM=0.
 Calling FoFJK, ICntrl=      2127 FMM=F ISym2X=0 I1Cent= 0 IOpClX= 0 NMat=1 NMatS=1 NMatT=0.
 ***** Axes restored to original set *****
 -------------------------------------------------------------------
 Center     Atomic                   Forces (Hartrees/Bohr)
 Number     Number              X              Y              Z
 -------------------------------------------------------------------
      1        6           0.005222972   -0.003737808   -0.008257853
      2        1           0.001885518   -0.002724895    0.000051302
      3        1           0.001157782    0.001452115    0.003116460
      4        1          -0.003483092    0.002333892    0.000710695
      5        6           0.013517942   -0.031910244    0.016850897
      6        8          -0.020711202    0.038085901   -0.014666492
      7        8           0.003835827   -0.004811912    0.000214030
      8        6          -0.007194496    0.000336107    0.000370852
      9        1           0.002944715   -0.001476588    0.004322211
     10        1           0.000673365   -0.001868671   -0.003240931
     11        1           0.002150671    0.004322103    0.000528831
 -------------------------------------------------------------------
 Cartesian Forces:  Max     0.038085901 RMS     0.010855401

 GradGradGradGradGradGradGradGradGradGradGradGradGradGradGradGradGradGrad
 Berny optimization.
 Using GEDIIS/GDIIS optimizer.
 FormGI is forming the generalized inverse of G from B-inverse, IUseBI=4.
 Internal  Forces:  Max     0.045674069 RMS     0.008104878
 Search for a local minimum.
 Step number   3 out of a maximum of   47
 All quantities printed in internal units (Hartrees-Bohrs-Radians)
 Mixed Optimization -- RFO/linear search
 Update second derivatives using D2CorX and points    1    2    3
 DE= -9.54D-03 DEPred=-1.70D-02 R= 5.60D-01
 TightC=F SS=  1.41D+00  RLast= 2.48D-01 DXNew= 8.4853D-01 7.4436D-01
 Trust test= 5.60D-01 RLast= 2.48D-01 DXMaxT set to 7.44D-01
 ITU=  1  1  0
 Use linear search instead of GDIIS.
     Eigenvalues ---    0.00237   0.00494   0.01287   0.01295   0.07008
     Eigenvalues ---    0.07209   0.10378   0.10442   0.15937   0.16000
     Eigenvalues ---    0.16000   0.16000   0.16006   0.16206   0.23571
     Eigenvalues ---    0.25007   0.25072   0.29068   0.37208   0.37230
     Eigenvalues ---    0.37230   0.37230   0.37230   0.37318   0.40989
     Eigenvalues ---    0.42389   0.75944
 RFO step:  Lambda=-2.46267768D-03 EMin= 2.36795288D-03
 Quartic linear search produced a step of -0.21089.
 Iteration  1 RMS(Cart)=  0.05403784 RMS(Int)=  0.00240095
 Iteration  2 RMS(Cart)=  0.00280517 RMS(Int)=  0.00093600
 Iteration  3 RMS(Cart)=  0.00000378 RMS(Int)=  0.00093599
 Iteration  4 RMS(Cart)=  0.00000000 RMS(Int)=  0.00093599
 Variable       Old X    -DE/DX   Delta X   Delta X   Delta X     New X
                                 (Linear)    (Quad)   (Total)
    R1        2.05229   0.00311  -0.00136   0.01111   0.00975   2.06204
    R2        2.05618   0.00357  -0.00180   0.01285   0.01105   2.06723
    R3        2.04815   0.00348  -0.00134   0.01139   0.01005   2.05820
    R4        2.87242  -0.00287  -0.00359  -0.01050  -0.01409   2.85833
    R5        2.21860   0.04567   0.04520   0.00170   0.04689   2.26550
    R6        2.60766   0.00217   0.00261  -0.00808  -0.00547   2.60219
    R7        2.71925   0.00046   0.00054   0.00233   0.00287   2.72212
    R8        2.05711   0.00437  -0.00166   0.01454   0.01288   2.06999
    R9        2.04763   0.00249  -0.00113   0.00908   0.00795   2.05558
   R10        2.05516   0.00422  -0.00168   0.01401   0.01234   2.06750
    A1        1.88978   0.00004   0.00399  -0.01020  -0.00616   1.88362
    A2        1.90912   0.00167   0.00291   0.01525   0.01809   1.92721
    A3        1.93936   0.00089  -0.00466   0.01850   0.01383   1.95320
    A4        1.89853  -0.00006   0.00265  -0.01318  -0.01065   1.88788
    A5        1.91206  -0.00137  -0.00184  -0.01004  -0.01190   1.90015
    A6        1.91440  -0.00116  -0.00295  -0.00107  -0.00411   1.91030
    A7        2.14613   0.00648  -0.00659   0.03375   0.02394   2.17007
    A8        2.02087  -0.00805   0.01252  -0.04608  -0.03672   1.98415
    A9        2.11616   0.00157  -0.00593   0.01318   0.00413   2.12029
   A10        1.98434   0.00524  -0.00852   0.03452   0.02600   2.01034
   A11        1.91545   0.00522   0.00335   0.02591   0.02904   1.94448
   A12        1.89406  -0.00670  -0.00375  -0.03724  -0.04094   1.85312
   A13        1.90830   0.00362   0.00271   0.01674   0.01917   1.92747
   A14        1.91559  -0.00096  -0.00147  -0.00605  -0.00741   1.90818
   A15        1.91024  -0.00054   0.00076   0.00451   0.00477   1.91501
   A16        1.92012  -0.00062  -0.00167  -0.00390  -0.00558   1.91454
    D1        2.63315  -0.00043  -0.00306  -0.08212  -0.08527   2.54789
    D2       -0.51517   0.00127  -0.00060   0.06159   0.06117  -0.45399
    D3       -1.56265  -0.00071  -0.00217  -0.08965  -0.09203  -1.65468
    D4        1.57222   0.00099   0.00028   0.05405   0.05440   1.62663
    D5        0.52010  -0.00233  -0.00182  -0.11256  -0.11450   0.40560
    D6       -2.62822  -0.00063   0.00064   0.03114   0.03194  -2.59628
    D7       -1.53332  -0.00163  -0.01152  -0.01746  -0.02814  -1.56146
    D8        1.60167   0.00006  -0.00911   0.12366   0.11372   1.71539
    D9        1.05441   0.00241   0.00106   0.03703   0.03857   1.09298
   D10       -3.13553   0.00027  -0.00105   0.02243   0.02129  -3.11424
   D11       -1.04101  -0.00236  -0.00374   0.00527   0.00115  -1.03987
         Item               Value     Threshold  Converged?
 Maximum Force            0.045674     0.000450     NO 
 RMS     Force            0.008105     0.000300     NO 
 Maximum Displacement     0.130794     0.001800     NO 
 RMS     Displacement     0.054102     0.001200     NO 
 Predicted change in Energy=-2.296707D-03
 GradGradGradGradGradGradGradGradGradGradGradGradGradGradGradGradGradGrad

                          Input orientation:                          
 ---------------------------------------------------------------------
 Center     Atomic      Atomic             Coordinates (Angstroms)
 Number     Number       Type             X           Y           Z
 ---------------------------------------------------------------------
      1          6           0       -2.266253    0.233725   -0.005057
      2          1           0       -1.866005   -0.759905   -0.212873
      3          1           0       -2.000426    0.495435    1.023305
      4          1           0       -3.352488    0.230143   -0.084603
      5          6           0       -1.696273    1.278406   -0.938660
      6          8           0       -2.304242    2.230549   -1.339955
      7          8           0       -0.454570    0.955104   -1.438492
      8          6           0        0.661078    1.398292   -0.642306
      9          1           0        0.656173    0.930748    0.348282
     10          1           0        1.556632    1.094116   -1.179609
     11          1           0        0.646406    2.487159   -0.536716
 ---------------------------------------------------------------------
                    Distance matrix (angstroms):
                    1          2          3          4          5
     1  C    0.000000
     2  H    1.091186   0.000000
     3  H    1.093931   1.766941   0.000000
     4  H    1.089150   1.790609   1.768025   0.000000
     5  C    1.512563   2.170320   2.134212   2.138064   0.000000
     6  O    2.402228   3.225706   2.947529   2.583864   1.198850
     7  O    2.420190   2.536838   2.943028   3.279713   1.377020
     8  C    3.214275   3.350877   3.266958   4.217146   2.378929
     9  H    3.025105   3.087812   2.775369   4.092384   2.703902
    10  H    4.090757   4.010788   4.226572   5.103426   3.267019
    11  H    3.720780   4.118314   3.661468   4.614074   2.666606
                    6          7          8          9         10
     6  O    0.000000
     7  O    2.248946   0.000000
     8  C    3.157925   1.440486   0.000000
     9  H    3.647422   2.104021   1.095393   0.000000
    10  H    4.027846   2.032555   1.087766   1.781001   0.000000
    11  H    3.068773   2.091062   1.094073   1.790456   1.783926
                   11
    11  H    0.000000
 Stoichiometry    C3H6O2
 Framework group  C1[X(C3H6O2)]
 Deg. of freedom    27
 Full point group                 C1      NOp   1
 Largest Abelian subgroup         C1      NOp   1
 Largest concise Abelian subgroup C1      NOp   1
                         Standard orientation:                         
 ---------------------------------------------------------------------
 Center     Atomic      Atomic             Coordinates (Angstroms)
 Number     Number       Type             X           Y           Z
 ---------------------------------------------------------------------
      1          6           0       -1.272922   -1.078023    0.061321
      2          1           0       -0.954845   -1.806208   -0.686515
      3          1           0       -1.084696   -1.506691    1.050007
      4          1           0       -2.341059   -0.884336   -0.027090
      5          6           0       -0.513127    0.224222   -0.059996
      6          8           0       -0.981199    1.304018    0.168459
      7          8           0        0.733391    0.086426   -0.628669
      8          6           0        1.803928   -0.178816    0.297935
      9          1           0        1.655379   -1.131025    0.818624
     10          1           0        2.713268   -0.231600   -0.296666
     11          1           0        1.887142    0.632007    1.027755
 ---------------------------------------------------------------------
 Rotational constants (GHZ):           8.2829335           4.2622050           3.2169256
 Standard basis: 6-311G(d,p) (5D, 7F)
 There are   131 symmetry adapted cartesian basis functions of A   symmetry.
 There are   126 symmetry adapted basis functions of A   symmetry.
   126 basis functions,   208 primitive gaussians,   131 cartesian basis functions
    20 alpha electrons       20 beta electrons
       nuclear repulsion energy       180.0577018222 Hartrees.
 NAtoms=   11 NActive=   11 NUniq=   11 SFac= 1.00D+00 NAtFMM=   60 NAOKFM=F Big=F
 Integral buffers will be    131072 words long.
 Raffenetti 2 integral format.
 Two-electron integral symmetry is turned on.
 ------------------------------------------------------------------------------
 Polarizable Continuum Model (PCM)
 =================================
 Model                : PCM.
 Atomic radii         : UFF (Universal Force Field).
 Polarization charges : Total charges.
 Charge compensation  : None.
 Solution method      : On-the-fly selection.
 Cavity type          : Scaled VdW (van der Waals Surface) (Alpha=1.100).
 Cavity algorithm     : GePol (No added spheres)
                        Default sphere list used, NSphG=   11.
                        Lebedev-Laikov grids with approx.  5.0 points / Ang**2.
                        Smoothing algorithm: York/Karplus (Gamma=1.0000).
                        Polarization charges: spherical gaussians, with
                                              point-specific exponents (IZeta= 3).
                        Self-potential: point-specific (ISelfS= 7).
                        Self-field    : sphere-specific E.n sum rule (ISelfD= 2).
 1st derivatives      : Analytical E(r).r(x)/FMM algorithm (CHGder, D1EAlg=3).
                        Cavity 1st derivative terms included.
 Solvent              : CarbonTetraChloride, Eps=   2.228000 Eps(inf)=   2.131892
 ------------------------------------------------------------------------------
 Spheres list:
 ISph  on   Nord     Re0    Alpha      Xe            Ye            Ze
    1   C      1    1.9255  1.100     -1.272922     -1.078023      0.061321
    2   H      2    1.4430  1.100     -0.954845     -1.806208     -0.686515
    3   H      3    1.4430  1.100     -1.084696     -1.506691      1.050007
    4   H      4    1.4430  1.100     -2.341059     -0.884336     -0.027090
    5   C      5    1.9255  1.100     -0.513127      0.224222     -0.059996
    6   O      6    1.7500  1.100     -0.981199      1.304018      0.168459
    7   O      7    1.7500  1.100      0.733391      0.086426     -0.628669
    8   C      8    1.9255  1.100      1.803928     -0.178816      0.297935
    9   H      9    1.4430  1.100      1.655379     -1.131025      0.818624
   10   H     10    1.4430  1.100      2.713268     -0.231600     -0.296666
   11   H     11    1.4430  1.100      1.887142      0.632007      1.027755
 ------------------------------------------------------------------------------
 One-electron integrals computed using PRISM.
 NBasis=   126 RedAO= T EigKep=  3.20D-03  NBF=   126
 NBsUse=   126 1.00D-06 EigRej= -1.00D+00 NBFU=   126
 Initial guess from the checkpoint file:  "/kimariyb/g16/scratch/Gau-39616.chk"
 B after Tr=     0.000000    0.000000    0.000000
         Rot=    0.999774   -0.004082   -0.002606   -0.020721 Ang=  -2.44 deg.
 ExpMin= 1.03D-01 ExpMax= 8.59D+03 ExpMxC= 1.30D+03 IAcc=3 IRadAn=         5 AccDes= 0.00D+00
 Harris functional with IExCor=  402 and IRadAn=       5 diagonalized for initial guess.
 HarFok:  IExCor=  402 AccDes= 0.00D+00 IRadAn=         5 IDoV= 1 UseB2=F ITyADJ=14
 ICtDFT=  3500011 ScaDFX=  1.000000  1.000000  1.000000  1.000000
 FoFCou: FMM=F IPFlag=           0 FMFlag=      100000 FMFlg1=           0
         NFxFlg=           0 DoJE=T BraDBF=F KetDBF=T FulRan=T
         wScrn=  0.000000 ICntrl=       500 IOpCl=  0 I1Cent=   200000004 NGrid=           0
         NMat0=    1 NMatS0=      1 NMatT0=    0 NMatD0=    1 NMtDS0=    0 NMtDT0=    0
 Petite list used in FoFCou.
 Keep R1 ints in memory in canonical form, NReq=41571322.
 Requested convergence on RMS density matrix=1.00D-08 within 128 cycles.
 Requested convergence on MAX density matrix=1.00D-06.
 Requested convergence on             energy=1.00D-06.
 No special actions if energy rises.
 Inv3:  Mode=1 IEnd=     3195072.
 Iteration    1 A*A^-1 deviation from unit magnitude is 4.22D-15 for   1017.
 Iteration    1 A*A^-1 deviation from orthogonality  is 1.76D-15 for    978    232.
 Iteration    1 A^-1*A deviation from unit magnitude is 4.22D-15 for   1017.
 Iteration    1 A^-1*A deviation from orthogonality  is 1.36D-15 for    932    375.
 Error on total polarization charges =  0.00476
 SCF Done:  E(RB3LYP) =  -268.447478597     A.U. after   11 cycles
            NFock= 11  Conv=0.28D-08     -V/T= 2.0034
 D1PCM: PCM CHGder 1st derivatives, ID1Alg=3 FixD1E=F DoIter=F DoCFld=F I1PDM=0.
 Calling FoFJK, ICntrl=      2127 FMM=F ISym2X=0 I1Cent= 0 IOpClX= 0 NMat=1 NMatS=1 NMatT=0.
 ***** Axes restored to original set *****
 -------------------------------------------------------------------
 Center     Atomic                   Forces (Hartrees/Bohr)
 Number     Number              X              Y              Z
 -------------------------------------------------------------------
      1        6           0.000468562    0.001873844    0.003280787
      2        1           0.000462811    0.001817540   -0.001070519
      3        1          -0.000347044   -0.000646620    0.001157648
      4        1          -0.000077447    0.000773160    0.000843501
      5        6          -0.008515801   -0.011148207   -0.010133239
      6        8           0.003011819    0.002949261    0.003224130
      7        8           0.005219882    0.005207854    0.004608662
      8        6          -0.001014657   -0.000579087   -0.001739136
      9        1           0.000030587   -0.000175479   -0.000206676
     10        1           0.000307985    0.000260492    0.000259201
     11        1           0.000453301   -0.000332758   -0.000224358
 -------------------------------------------------------------------
 Cartesian Forces:  Max     0.011148207 RMS     0.003612559

 GradGradGradGradGradGradGradGradGradGradGradGradGradGradGradGradGradGrad
 Berny optimization.
 Using GEDIIS/GDIIS optimizer.
 FormGI is forming the generalized inverse of G from B-inverse, IUseBI=4.
 Internal  Forces:  Max     0.003605596 RMS     0.001789456
 Search for a local minimum.
 Step number   4 out of a maximum of   47
 All quantities printed in internal units (Hartrees-Bohrs-Radians)
 Mixed Optimization -- RFO/linear search
 Update second derivatives using D2CorX and points    1    2    3    4
 DE= -1.24D-03 DEPred=-2.30D-03 R= 5.40D-01
 TightC=F SS=  1.41D+00  RLast= 2.49D-01 DXNew= 1.2519D+00 7.4586D-01
 Trust test= 5.40D-01 RLast= 2.49D-01 DXMaxT set to 7.46D-01
 ITU=  1  1  1  0
 Use linear search instead of GDIIS.
     Eigenvalues ---    0.00233   0.01045   0.01268   0.01437   0.06772
     Eigenvalues ---    0.07310   0.09914   0.10613   0.14436   0.15994
     Eigenvalues ---    0.16000   0.16000   0.16057   0.16744   0.19009
     Eigenvalues ---    0.24899   0.25663   0.28971   0.36163   0.37230
     Eigenvalues ---    0.37230   0.37230   0.37231   0.37348   0.40988
     Eigenvalues ---    0.43494   0.82356
 RFO step:  Lambda=-3.05533358D-03 EMin= 2.32857028D-03
 Quartic linear search produced a step of -0.28930.
 Iteration  1 RMS(Cart)=  0.08103616 RMS(Int)=  0.00882984
 Iteration  2 RMS(Cart)=  0.01350413 RMS(Int)=  0.00368231
 Iteration  3 RMS(Cart)=  0.00010477 RMS(Int)=  0.00368092
 Iteration  4 RMS(Cart)=  0.00000020 RMS(Int)=  0.00368092
 Variable       Old X    -DE/DX   Delta X   Delta X   Delta X     New X
                                 (Linear)    (Quad)   (Total)
    R1        2.06204  -0.00128  -0.00282   0.01376   0.01094   2.07298
    R2        2.06723   0.00085  -0.00320   0.01955   0.01636   2.08359
    R3        2.05820   0.00001  -0.00291   0.01617   0.01326   2.07146
    R4        2.85833  -0.00023   0.00408  -0.02275  -0.01867   2.83966
    R5        2.26550  -0.00026  -0.01357   0.03364   0.02008   2.28557
    R6        2.60219   0.00250   0.00158  -0.00958  -0.00800   2.59419
    R7        2.72212  -0.00148  -0.00083   0.00268   0.00184   2.72397
    R8        2.06999  -0.00011  -0.00373   0.02059   0.01686   2.08685
    R9        2.05558   0.00005  -0.00230   0.01314   0.01084   2.06642
   R10        2.06750  -0.00036  -0.00357   0.01927   0.01570   2.08320
    A1        1.88362   0.00031   0.00178  -0.00861  -0.00683   1.87679
    A2        1.92721   0.00122  -0.00523   0.02982   0.02454   1.95174
    A3        1.95320  -0.00278  -0.00400   0.00981   0.00578   1.95897
    A4        1.88788  -0.00090   0.00308  -0.01849  -0.01546   1.87242
    A5        1.90015   0.00195   0.00344  -0.00911  -0.00569   1.89446
    A6        1.91030   0.00027   0.00119  -0.00503  -0.00390   1.90640
    A7        2.17007   0.00034  -0.00693   0.05253   0.03271   2.20278
    A8        1.98415   0.00321   0.01062  -0.03546  -0.03743   1.94673
    A9        2.12029  -0.00285  -0.00120   0.01528   0.00164   2.12194
   A10        2.01034   0.00361  -0.00752   0.05142   0.04390   2.05424
   A11        1.94448  -0.00027  -0.00840   0.04134   0.03260   1.97708
   A12        1.85312   0.00054   0.01184  -0.05885  -0.04693   1.80619
   A13        1.92747   0.00039  -0.00555   0.02923   0.02330   1.95076
   A14        1.90818  -0.00027   0.00214  -0.01223  -0.00998   1.89821
   A15        1.91501   0.00016  -0.00138   0.00814   0.00610   1.92111
   A16        1.91454  -0.00056   0.00161  -0.01051  -0.00888   1.90566
    D1        2.54789   0.00233   0.02467   0.07391   0.09897   2.64686
    D2       -0.45399  -0.00312  -0.01770  -0.18582  -0.20388  -0.65788
    D3       -1.65468   0.00227   0.02663   0.06333   0.09032  -1.56436
    D4        1.62663  -0.00318  -0.01574  -0.19639  -0.21253   1.41409
    D5        0.40560   0.00247   0.03312   0.03282   0.06633   0.47193
    D6       -2.59628  -0.00299  -0.00924  -0.22690  -0.23653  -2.83281
    D7       -1.56146   0.00270   0.00814   0.13979   0.14479  -1.41667
    D8        1.71539  -0.00285  -0.03290  -0.11515  -0.14491   1.57048
    D9        1.09298   0.00009  -0.01116   0.04761   0.03704   1.13002
   D10       -3.11424  -0.00005  -0.00616   0.01971   0.01347  -3.10077
   D11       -1.03987  -0.00020  -0.00033  -0.01160  -0.01244  -1.05231
         Item               Value     Threshold  Converged?
 Maximum Force            0.003606     0.000450     NO 
 RMS     Force            0.001789     0.000300     NO 
 Maximum Displacement     0.307206     0.001800     NO 
 RMS     Displacement     0.091484     0.001200     NO 
 Predicted change in Energy=-2.104355D-03
 GradGradGradGradGradGradGradGradGradGradGradGradGradGradGradGradGradGrad

                          Input orientation:                          
 ---------------------------------------------------------------------
 Center     Atomic      Atomic             Coordinates (Angstroms)
 Number     Number       Type             X           Y           Z
 ---------------------------------------------------------------------
      1          6           0       -2.231702    0.236130   -0.032301
      2          1           0       -1.879883   -0.781625   -0.241471
      3          1           0       -1.837859    0.527248    0.955542
      4          1           0       -3.325223    0.285485    0.025668
      5          6           0       -1.744938    1.226963   -1.051793
      6          8           0       -2.302886    2.249385   -1.377635
      7          8           0       -0.460719    0.950375   -1.450320
      8          6           0        0.615060    1.393922   -0.599568
      9          1           0        0.622410    0.899995    0.388103
     10          1           0        1.513123    1.096677   -1.148094
     11          1           0        0.612652    2.489218   -0.474812
 ---------------------------------------------------------------------
                    Distance matrix (angstroms):
                    1          2          3          4          5
     1  C    0.000000
     2  H    1.096975   0.000000
     3  H    1.102586   1.774191   0.000000
     4  H    1.096168   1.816341   1.770697   0.000000
     5  C    1.502682   2.170082   2.127823   2.131807   0.000000
     6  O    2.422434   3.264479   2.936958   2.621323   1.209474
     7  O    2.378509   2.544635   2.804234   3.290289   1.372787
     8  C    3.125113   3.329561   3.030892   4.140698   2.408729
     9  H    2.960306   3.079883   2.552225   4.011582   2.790080
    10  H    4.001156   3.982772   3.997326   5.044338   3.262087
    11  H    3.655485   4.118932   3.449674   4.540240   2.735768
                    6          7          8          9         10
     6  O    0.000000
     7  O    2.255281   0.000000
     8  C    3.138728   1.441462   0.000000
     9  H    3.673696   2.134363   1.104315   0.000000
    10  H    3.992913   2.002198   1.093505   1.786605   0.000000
    11  H    3.061531   2.114658   1.102381   1.808411   1.789785
                   11
    11  H    0.000000
 Stoichiometry    C3H6O2
 Framework group  C1[X(C3H6O2)]
 Deg. of freedom    27
 Full point group                 C1      NOp   1
 Largest Abelian subgroup         C1      NOp   1
 Largest concise Abelian subgroup C1      NOp   1
                         Standard orientation:                         
 ---------------------------------------------------------------------
 Center     Atomic      Atomic             Coordinates (Angstroms)
 Number     Number       Type             X           Y           Z
 ---------------------------------------------------------------------
      1          6           0       -1.184988   -1.122976    0.068959
      2          1           0       -0.903227   -1.841796   -0.710313
      3          1           0       -0.829156   -1.522007    1.033248
      4          1           0       -2.272635   -1.009643    0.144870
      5          6           0       -0.560856    0.226402   -0.149424
      6          8           0       -1.015300    1.289661    0.205241
      7          8           0        0.718896    0.117303   -0.634063
      8          6           0        1.773602   -0.146357    0.312453
      9          1           0        1.682510   -1.130861    0.804354
     10          1           0        2.676460   -0.143677   -0.304470
     11          1           0        1.850735    0.649861    1.070960
 ---------------------------------------------------------------------
 Rotational constants (GHZ):           8.0573850           4.3699272           3.2736996
 Standard basis: 6-311G(d,p) (5D, 7F)
 There are   131 symmetry adapted cartesian basis functions of A   symmetry.
 There are   126 symmetry adapted basis functions of A   symmetry.
   126 basis functions,   208 primitive gaussians,   131 cartesian basis functions
    20 alpha electrons       20 beta electrons
       nuclear repulsion energy       180.1916278608 Hartrees.
 NAtoms=   11 NActive=   11 NUniq=   11 SFac= 1.00D+00 NAtFMM=   60 NAOKFM=F Big=F
 Integral buffers will be    131072 words long.
 Raffenetti 2 integral format.
 Two-electron integral symmetry is turned on.
 ------------------------------------------------------------------------------
 Polarizable Continuum Model (PCM)
 =================================
 Model                : PCM.
 Atomic radii         : UFF (Universal Force Field).
 Polarization charges : Total charges.
 Charge compensation  : None.
 Solution method      : On-the-fly selection.
 Cavity type          : Scaled VdW (van der Waals Surface) (Alpha=1.100).
 Cavity algorithm     : GePol (No added spheres)
                        Default sphere list used, NSphG=   11.
                        Lebedev-Laikov grids with approx.  5.0 points / Ang**2.
                        Smoothing algorithm: York/Karplus (Gamma=1.0000).
                        Polarization charges: spherical gaussians, with
                                              point-specific exponents (IZeta= 3).
                        Self-potential: point-specific (ISelfS= 7).
                        Self-field    : sphere-specific E.n sum rule (ISelfD= 2).
 1st derivatives      : Analytical E(r).r(x)/FMM algorithm (CHGder, D1EAlg=3).
                        Cavity 1st derivative terms included.
 Solvent              : CarbonTetraChloride, Eps=   2.228000 Eps(inf)=   2.131892
 ------------------------------------------------------------------------------
 Spheres list:
 ISph  on   Nord     Re0    Alpha      Xe            Ye            Ze
    1   C      1    1.9255  1.100     -1.184988     -1.122976      0.068959
    2   H      2    1.4430  1.100     -0.903227     -1.841796     -0.710313
    3   H      3    1.4430  1.100     -0.829156     -1.522007      1.033248
    4   H      4    1.4430  1.100     -2.272635     -1.009643      0.144870
[...]
     Eigenvalues ---    0.34112   0.34328   0.34967   0.35244   0.36768
     Eigenvalues ---    0.44337   0.86545
 Angle between quadratic step and forces=  86.72 degrees.
 Linear search not attempted -- first point.
 Iteration  1 RMS(Cart)=  0.00123358 RMS(Int)=  0.00000099
 Iteration  2 RMS(Cart)=  0.00000103 RMS(Int)=  0.00000001
 Iteration  3 RMS(Cart)=  0.00000000 RMS(Int)=  0.00000001
 Variable       Old X    -DE/DX   Delta X   Delta X   Delta X     New X
                                 (Linear)    (Quad)   (Total)
    R1        2.06382   0.00001   0.00000   0.00007   0.00007   2.06390
    R2        2.06398  -0.00002   0.00000  -0.00010  -0.00010   2.06387
    R3        2.05542   0.00000   0.00000   0.00000   0.00000   2.05542
    R4        2.84823  -0.00000   0.00000   0.00000   0.00000   2.84823
    R5        2.28051   0.00003   0.00000   0.00003   0.00003   2.28054
    R6        2.55147  -0.00001   0.00000  -0.00004  -0.00004   2.55142
    R7        2.72275  -0.00003   0.00000  -0.00013  -0.00013   2.72262
    R8        2.06135   0.00000   0.00000   0.00002   0.00002   2.06137
    R9        2.05497  -0.00000   0.00000  -0.00001  -0.00001   2.05496
   R10        2.06136   0.00000   0.00000   0.00002   0.00002   2.06137
    A1        1.87520   0.00001   0.00000   0.00013   0.00013   1.87532
    A2        1.92014   0.00000   0.00000  -0.00021  -0.00021   1.91994
    A3        1.91854  -0.00002   0.00000  -0.00035  -0.00035   1.91820
    A4        1.91980   0.00001   0.00000   0.00024   0.00024   1.92005
    A5        1.91816  -0.00000   0.00000   0.00015   0.00015   1.91832
    A6        1.91175   0.00001   0.00000   0.00003   0.00003   1.91178
    A7        2.19437  -0.00000   0.00000   0.00000   0.00000   2.19437
    A8        1.93621  -0.00001   0.00000  -0.00002  -0.00002   1.93619
    A9        2.15261   0.00001   0.00000   0.00002   0.00002   2.15263
   A10        2.02258   0.00004   0.00000   0.00015   0.00015   2.02273
   A11        1.92896  -0.00000   0.00000  -0.00000  -0.00000   1.92896
   A12        1.84144   0.00001   0.00000   0.00006   0.00006   1.84150
   A13        1.92891   0.00000   0.00000   0.00005   0.00005   1.92896
   A14        1.92953  -0.00000   0.00000  -0.00001  -0.00001   1.92952
   A15        1.90512  -0.00001   0.00000  -0.00012  -0.00012   1.90500
   A16        1.92949   0.00000   0.00000   0.00003   0.00003   1.92952
    D1        2.11319  -0.00000   0.00000  -0.00301  -0.00301   2.11017
    D2       -1.02845  -0.00001   0.00000  -0.00289  -0.00289  -1.03135
    D3       -2.10959   0.00000   0.00000  -0.00298  -0.00298  -2.11256
    D4        1.03196  -0.00000   0.00000  -0.00286  -0.00286   1.02910
    D5        0.00147   0.00001   0.00000  -0.00256  -0.00256  -0.00109
    D6       -3.14017   0.00000   0.00000  -0.00244  -0.00244   3.14058
    D7       -3.14144   0.00000   0.00000  -0.00027  -0.00027   3.14147
    D8        0.00010  -0.00000   0.00000  -0.00016  -0.00016  -0.00005
    D9        1.05519  -0.00000   0.00000   0.00018   0.00018   1.05537
   D10        3.14140  -0.00000   0.00000   0.00020   0.00020  -3.14158
   D11       -1.05565   0.00001   0.00000   0.00030   0.00030  -1.05536
         Item               Value     Threshold  Converged?
 Maximum Force            0.000035     0.000450     YES
 RMS     Force            0.000011     0.000300     YES
 Maximum Displacement     0.003396     0.001800     NO 
 RMS     Displacement     0.001234     0.001200     NO 
 Predicted change in Energy=-1.345050D-08
                           ----------------------------
                           ! Non-Optimized Parameters !
                           ! (Angstroms and Degrees)  !
 --------------------------                            --------------------------
 ! Name  Definition              Value          Derivative Info.                !
 --------------------------------------------------------------------------------
 ! R1    R(1,2)                  1.0922         -DE/DX =    0.0                 !
 ! R2    R(1,3)                  1.0922         -DE/DX =    0.0                 !
 ! R3    R(1,4)                  1.0877         -DE/DX =    0.0                 !
 ! R4    R(1,5)                  1.5072         -DE/DX =    0.0                 !
 ! R5    R(5,6)                  1.2068         -DE/DX =    0.0                 !
 ! R6    R(5,7)                  1.3502         -DE/DX =    0.0                 !
 ! R7    R(7,8)                  1.4407         -DE/DX =    0.0                 !
 ! R8    R(8,9)                  1.0908         -DE/DX =    0.0                 !
 ! R9    R(8,10)                 1.0874         -DE/DX =    0.0                 !
 ! R10   R(8,11)                 1.0908         -DE/DX =    0.0                 !
 ! A1    A(2,1,3)              107.448          -DE/DX =    0.0                 !
 ! A2    A(2,1,4)              110.0043         -DE/DX =    0.0                 !
 ! A3    A(2,1,5)              109.9045         -DE/DX =    0.0                 !
 ! A4    A(3,1,4)              110.0106         -DE/DX =    0.0                 !
 ! A5    A(3,1,5)              109.9114         -DE/DX =    0.0                 !
 ! A6    A(4,1,5)              109.537          -DE/DX =    0.0                 !
 ! A7    A(1,5,6)              125.7279         -DE/DX =    0.0                 !
 ! A8    A(1,5,7)              110.9356         -DE/DX =    0.0                 !
 ! A9    A(6,5,7)              123.3365         -DE/DX =    0.0                 !
 ! A10   A(5,7,8)              115.8936         -DE/DX =    0.0                 !
 ! A11   A(7,8,9)              110.5211         -DE/DX =    0.0                 !
 ! A12   A(7,8,10)             105.5104         -DE/DX =    0.0                 !
 ! A13   A(7,8,11)             110.521          -DE/DX =    0.0                 !
 ! A14   A(9,8,10)             110.5534         -DE/DX =    0.0                 !
 ! A15   A(9,8,11)             109.1485         -DE/DX =    0.0                 !
 ! A16   A(10,8,11)            110.5533         -DE/DX =    0.0                 !
 ! D1    D(2,1,5,6)            120.9039         -DE/DX =    0.0                 !
 ! D2    D(2,1,5,7)            -59.0918         -DE/DX =    0.0                 !
 ! D3    D(3,1,5,6)           -121.0411         -DE/DX =    0.0                 !
 ! D4    D(3,1,5,7)             58.9632         -DE/DX =    0.0                 !
 ! D5    D(4,1,5,6)             -0.0625         -DE/DX =    0.0                 !
 ! D6    D(4,1,5,7)            179.9418         -DE/DX =    0.0                 !
 ! D7    D(1,5,7,8)            179.993          -DE/DX =    0.0                 !
 ! D8    D(6,5,7,8)             -0.0029         -DE/DX =    0.0                 !
 ! D9    D(5,7,8,9)             60.4683         -DE/DX =    0.0                 !
 ! D10   D(5,7,8,10)          -179.9995         -DE/DX =    0.0                 !
 ! D11   D(5,7,8,11)           -60.4674         -DE/DX =    0.0                 !
 --------------------------------------------------------------------------------
 GradGradGradGradGradGradGradGradGradGradGradGradGradGradGradGradGradGrad


 ----------------------------------------------------------------------

 Electric dipole moment (input orientation):
 (Debye = 10**-18 statcoulomb cm , SI units = C m)
                  (au)            (Debye)         (10**-30 SI)
   Tot        0.782928D+00      0.199001D+01      0.663794D+01
   x          0.425412D+00      0.108129D+01      0.360679D+01
   y         -0.657257D+00     -0.167058D+01     -0.557245D+01
   z         -0.389668D-02     -0.990436D-02     -0.330374D-01

 Dipole polarizability, Alpha (input orientation).
 (esu units = cm**3 , SI units = C**2 m**2 J**-1)
 Alpha(0;0):
               (au)            (10**-24 esu)      (10**-40 SI)
   iso        0.432042D+02      0.640220D+01      0.712341D+01
   aniso      0.160543D+02      0.237900D+01      0.264699D+01
   xx         0.503615D+02      0.746281D+01      0.830349D+01
   yx         0.231849D+01      0.343564D+00      0.382267D+00
   yy         0.452604D+02      0.670689D+01      0.746243D+01
   zx        -0.285832D+01     -0.423559D+00     -0.471273D+00
   zy        -0.148175D+01     -0.219573D+00     -0.244308D+00
   zz         0.339907D+02      0.503690D+01      0.560430D+01

 ----------------------------------------------------------------------

 Dipole orientation:
     6         -3.16874499         -2.34904806         -2.62861260
     1         -2.91857299         -4.04538461         -1.48003690
     1         -4.19803307         -0.97361645         -1.48460377
     1         -4.24262037         -2.79845232         -4.32259106
     6         -0.62845233         -1.29142224         -3.36396136
     8          0.11773081         -0.98001420         -5.49631680
     8          0.75298387         -0.71710898         -1.29713330
     6          3.22817593          0.31372978         -1.77056808
     1          3.08653423          2.07455956         -2.83291846
     1          4.04564825          0.65371538          0.08389948
     1          4.37797631         -1.02691036         -2.83350677

 Electric dipole moment (dipole orientation):
 (Debye = 10**-18 statcoulomb cm , SI units = C m)
                  (au)            (Debye)         (10**-30 SI)
   Tot        0.782928D+00      0.199001D+01      0.663794D+01
   x          0.000000D+00      0.000000D+00      0.000000D+00
   y          0.000000D+00      0.000000D+00      0.000000D+00
   z          0.782928D+00      0.199001D+01      0.663794D+01

 Dipole polarizability, Alpha (dipole orientation).
 (esu units = cm**3 , SI units = C**2 m**2 J**-1)
 Alpha(0;0):
               (au)            (10**-24 esu)      (10**-40 SI)
   iso        0.432042D+02      0.640220D+01      0.712341D+01
   aniso      0.160543D+02      0.237900D+01      0.264699D+01
   xx         0.488739D+02      0.724236D+01      0.805821D+01
   yx         0.643723D+01      0.953900D+00      0.106136D+01
   yy         0.360846D+02      0.534719D+01      0.594955D+01
   zx         0.130893D+01      0.193964D+00      0.215814D+00
   zy         0.542128D+00      0.803351D-01      0.893848D-01
   zz         0.446541D+02      0.661706D+01      0.736247D+01

 ----------------------------------------------------------------------
 Unable to Open any file for archive entry.
 1\1\GINC-LOCALHOST\Freq\RB3LYP\6-311G(d,p)\C3H6O2\KIMARIYB\03-Aug-2023
 \0\\#N Geom=AllCheck Guess=TCheck SCRF=Check GenChk RB3LYP/6-311G(d,p)
  Freq\\Title Card Required\\0,1\C,-2.5049494143,0.0363757483,-0.125488
 1541\H,-2.4931010687,-0.6750586765,-0.9540204177\H,-2.2254067374,-0.50
 91850723,0.7784705895\H,-3.5007002875,0.4590136129,-0.0118928993\C,-1.
 5144212967,1.1425665451,-0.3841355809\O,-1.7743012389,2.318926937,-0.4
 547335957\O,-0.2666999355,0.648189525,-0.5316578356\C,0.7684111651,1.6
 181005682,-0.7841762386\H,0.8373915543,2.3275152897,0.0415730393\H,1.6
 883411466,1.0450751148,-0.8730773827\H,0.5654688929,2.1622530677,-1.70
 75442242\\Version=ES64L-G16RevC.01\State=1-A\HF=-268.4696743\RMSD=1.97
 5e-09\RMSF=1.854e-05\ZeroPoint=0.0891412\Thermal=0.0954047\ETot=-268.3
 742696\HTot=-268.3733254\GTot=-268.4108876\Dipole=0.425412,-0.6572565,
 -0.0038967\DipoleDeriv=-0.1103576,-0.1783896,0.0435468,-0.2056379,-0.2
 059755,0.0573485,0.0463394,0.0533683,0.0482555,0.0688713,-0.0100056,0.
 0422189,-0.0159889,0.0296289,-0.0708784,0.0068269,-0.0959375,-0.008301
 7,0.0471918,0.0077956,-0.0644787,0.0012554,0.0596283,0.0617838,-0.0279
 957,0.0847862,-0.0167421,-0.0645118,0.0200538,0.0224478,0.0733812,0.03
 29971,-0.0056086,0.017334,0.0025666,0.0903296,1.9416143,0.0077276,-0.2
 601517,-0.4154971,1.5157944,-0.052615,-0.220213,-0.1184538,0.3209257,-
 0.8055382,-0.0135856,0.0693144,0.3300367,-1.17409,0.024766,0.0368751,0
 .0781853,-0.3814601,-1.7036808,-0.0522758,0.2208292,0.038579,-0.700130
 4,0.0301762,0.2121611,0.0443169,-0.3538722,0.7027603,0.1621209,-0.0735
 597,0.2853815,0.4402045,-0.0549624,-0.0851159,-0.0357939,0.345,0.01420
 43,-0.0024102,0.0425875,-0.104526,-0.0147311,-0.0637972,-0.0139071,-0.
 0933634,-0.0593547,-0.091363,0.0448011,0.0246628,0.0930026,0.0014925,-
 0.0056725,0.0201045,0.001817,0.091154,0.0008093,0.0141678,-0.0674172,-
 0.0799865,0.0151812,0.0794598,0.0075908,0.0785084,-0.0759341\Polar=50.
 3615293,2.3184879,45.260362,-2.858319,-1.4817538,33.9906726\Quadrupole
 =2.2880827,-2.585497,0.2974143,3.4995223,-0.6607387,-0.2849177\PG=C01 
 [X(C3H6O2)]\NImag=0\\0.56066009,-0.06355203,0.51998649,0.00163452,0.01
 123174,0.53111461,-0.04803366,0.00159703,0.00335811,0.04568648,0.00115
 926,-0.15502660,-0.13540087,-0.00061854,0.16953137,0.00340008,-0.13404
 228,-0.19737117,-0.00410663,0.14530577,0.21406548,-0.06575905,0.034286
 62,-0.05636311,-0.00041592,-0.00009059,0.00046718,0.06570867,0.0342963
 1,-0.10733873,0.11333027,-0.00548069,0.01181048,-0.01805609,-0.0359317
 5,0.11800363,-0.05638735,0.11188638,-0.22714487,-0.00627257,0.01265052
 ,-0.02021678,0.06312158,-0.12202674,0.24541863,-0.27728550,0.09605946,
 0.02635548,0.00251861,-0.00104175,0.00019465,-0.00498552,0.00154468,0.
 00060535,0.30022709,0.10403129,-0.09186143,-0.01185620,0.01803261,-0.0
 0717424,0.00015228,0.01281501,-0.00594091,-0.00336894,-0.10649918,0.09
 599968,0.02559908,-0.01062577,-0.05037318,0.02291592,-0.00778452,-0.00
 152005,-0.02502415,0.00925993,0.00473386,-0.02920326,0.01164768,0.0489
 4661,-0.13687393,-0.05570157,0.01249532,0.00207839,0.00329309,0.000363
 09,0.00853978,0.00977537,-0.00272736,-0.01968476,-0.02380272,0.0049131
 5,0.55436006,-0.05607102,-0.13115770,0.01255639,-0.01177356,-0.0180919
 0,0.00431238,-0.00783020,-0.01411279,0.00212278,0.01397480,0.01073036,
 -0.00343375,-0.04840782,0.96654475,0.01254664,0.01251551,-0.09345336,-
 0.02130295,-0.02078831,0.00677165,0.02205481,0.02217353,-0.00369399,0.
 00129784,0.00239387,-0.00309247,-0.04547840,-0.06173206,0.24570315,0.0
 1343093,-0.02007021,0.00376638,-0.00085320,-0.00352025,0.00012718,-0.0
 0162222,-0.00445893,0.00075260,0.00375406,0.00149111,-0.00077943,-0.13
 048652,0.10835342,-0.00225094,0.14463854,0.00423261,-0.04566859,0.0060
 6639,-0.00240399,-0.00260842,0.00205583,-0.00335155,-0.00347866,-0.000
 74688,0.00018556,0.00156933,-0.00021710,0.09646163,-0.69621600,0.04322
 744,-0.16307939,0.79713856,0.00147303,0.00985737,0.02438489,0.00302027
 ,0.00399904,-0.00181798,-0.00235619,-0.00236158,-0.00016131,-0.0006503
 4,-0.00041079,-0.00023278,-0.00112983,0.04137605,-0.08294201,-0.002306
 39,-0.04694757,0.03568009,-0.04353614,0.00212425,0.00820540,-0.0011950
 9,0.00087025,-0.00010849,-0.00164042,0.00046060,0.00056063,-0.00409082
 ,-0.00475879,0.00125401,-0.22568885,0.03607264,0.02129246,-0.03566707,
 0.07463325,0.00315409,0.48304993,-0.02687836,0.01025266,0.00419426,0.0
 0047559,0.00149998,0.00024833,0.00002716,0.00113668,-0.00048585,-0.004
 67463,-0.00371938,0.00118218,0.02108301,-0.12900038,0.00256830,0.07348
 393,-0.04906319,-0.00398750,0.00693542,0.34341747,0.01094823,-0.000312
 29,0.00879061,0.00196464,0.00129104,0.00003087,-0.00143364,-0.00166170
 ,0.00083216,0.00124296,0.00119538,0.00075964,0.02270136,0.00023498,-0.
 07054971,0.00326117,-0.00416456,0.02974037,-0.06389242,-0.02624532,0.0
 8906523,-0.00090980,0.00470709,0.00045281,0.00028699,-0.00016725,-0.00
 036903,0.00024241,-0.00035000,0.00039091,0.00011650,-0.00092462,0.0001
 9970,-0.06358870,-0.01727554,0.01166788,0.00779156,-0.01350492,-0.0008
 9587,-0.12157859,-0.03413922,0.01192503,0.52394766,0.00460968,0.000213
 43,-0.00027816,0.00011748,-0.00004510,-0.00004232,0.00003779,-0.000189
 47,0.00007472,0.00097940,0.00073431,-0.00014295,-0.01293031,0.02268642
 ,-0.00004138,0.00823605,-0.00871470,-0.00103956,-0.05891658,-0.1449838
 8,0.01664951,-0.09608126,0.52469588,0.00046719,-0.00029689,0.00483874,
 0.00047954,0.00087966,0.00007746,-0.00052685,-0.00074374,0.00026501,0.
 00001877,0.00015475,0.00080792,0.01125964,0.00063826,-0.00088248,-0.00
 294769,0.00234126,-0.00591296,0.01426152,0.01279540,-0.06907141,0.0182
 9568,0.02048723,0.57852658,-0.00019303,0.00008267,0.00089917,0.0000704
 8,0.00024256,0.00002593,-0.00011490,-0.00008433,0.00001132,-0.00015032
 ,-0.00002253,0.00012731,0.00515502,-0.00636185,-0.00164313,-0.00051088
 ,0.00326669,-0.00009908,-0.01318169,-0.02368827,-0.01843687,-0.0492863
 5,-0.00118756,-0.00280770,0.05311615,-0.00042221,-0.00003018,0.0000993
 8,0.00005013,0.00010207,0.00008007,0.00000128,-0.00000122,-0.00001396,
 -0.00012896,-0.00002937,0.00012754,0.00606146,-0.00256899,-0.00060515,
 -0.00105799,0.00238966,-0.00001566,-0.01541703,-0.02176077,-0.01225665
 ,-0.00567553,-0.15250277,-0.12757295,0.01522860,0.17108649,-0.00025067
 ,0.00011302,-0.00058255,-0.00003534,-0.00004220,0.00000773,0.00007178,
 0.00014193,-0.00005729,-0.00002635,-0.00004569,-0.00002627,0.00150762,
 -0.00155034,0.00112036,0.00097196,0.00138004,-0.00003662,-0.00104070,0
 .00676675,0.01160738,-0.00868752,-0.13107619,-0.21192328,0.00743103,0.
 14111242,0.21968491,-0.00109656,0.00060597,0.00013779,-0.00001432,-0.0
 0000499,-0.00002940,-0.00001276,-0.00000173,0.00003104,-0.00025562,-0.
 00033557,0.00007442,0.00137910,-0.00547395,0.00033390,0.00028781,0.000
 93799,-0.00003274,-0.03212765,0.00683687,0.00438115,-0.23419095,0.1237
 9991,0.01658132,0.00415117,-0.00042832,0.00007312,0.26468835,-0.001006
 05,0.00070309,0.00010502,0.00000954,0.00002569,-0.00002452,0.00001072,
 0.00002775,0.00001442,-0.00024966,-0.00026857,0.00006602,-0.00139212,-
 0.00676836,0.00087481,0.00182458,0.00264808,-0.00047272,-0.03282756,0.
 01088204,0.00409483,0.13625415,-0.13411477,-0.01345922,0.01589851,-0.0
 0845418,0.00076044,-0.12958507,0.14166703,0.00029003,-0.00014590,0.000
 12521,0.00002345,0.00000421,-0.00000751,-0.00002443,-0.00001033,-0.000
 01199,0.00006620,0.00007941,0.00000013,-0.00004907,0.00150969,0.000079
 05,-0.00011579,-0.00033431,0.00069575,0.00812586,-0.00207250,-0.000872
 36,0.01540480,-0.01152317,-0.05363254,0.02097887,-0.01267355,-0.000126
 49,-0.02164828,0.01117793,0.04902657,-0.00040335,-0.00013927,-0.000941
 89,-0.00012875,-0.00012180,0.00003543,0.00005993,0.00023047,-0.0000861
 5,-0.00016371,-0.00002660,-0.00007676,0.00481041,-0.00520691,0.0014819
 0,-0.00076300,0.00262210,-0.00017695,-0.00434361,-0.01946151,0.0273384
 0,-0.06283073,0.03133542,-0.05508141,0.00094435,0.00178857,-0.00001493
 ,-0.00280856,0.01106297,-0.02305163,0.06562703,-0.00039948,-0.00007244
 ,-0.00004823,-0.00000559,-0.00002334,0.00001055,0.00002551,0.00008325,
 -0.00010645,-0.00014972,-0.00003979,-0.00007926,0.00555998,-0.00204542
 ,-0.00058656,-0.00120231,0.00200393,0.00000292,-0.00917643,-0.01866125
 ,0.02117478,0.02715711,-0.10777935,0.10477623,-0.00337449,0.01176927,-
 0.01756017,0.00364888,-0.00634781,0.01398852,-0.02208345,0.12111294,0.
 00027922,-0.00018088,-0.00032893,-0.00004444,-0.00011434,-0.00001970,0
 .00001301,-0.00004550,0.00003655,0.00009871,0.00005824,-0.00000343,-0.
 00385551,0.00396562,0.00093980,-0.00047907,-0.00266055,0.00060256,0.00
 818764,0.00503597,-0.00033279,-0.04838438,0.10693228,-0.24309304,-0.00
 648685,0.01171851,-0.01966788,0.00009767,-0.00313701,0.00472417,0.0505
 7399,-0.12157234,0.25714269\\-0.00000081,0.00001196,-0.00005421,-0.000
 00532,-0.00000367,0.00002062,-0.00000067,-0.00001415,0.00001528,0.0000
 0312,0.00000390,0.00000764,-0.00001464,0.00004348,0.00001839,0.0000124
 5,-0.00002363,-0.00000469,-0.00000685,-0.00004085,-0.00000159,0.000005
 71,0.00004604,0.00000153,0.00000376,-0.00000715,0.00000075,0.00000073,
 -0.00000554,-0.00000145,0.00000251,-0.00001038,-0.00000227\\\@
 The archive entry for this job was punched.


 I CLAIM NOT TO HAVE CONTROLLED EVENTS,
 BUT CONFESS PLAINLY THAT EVENTS HAVE CONTROLLED ME.

                                         A. LINCOLN
 Job cpu time:       0 days  0 hours  4 minutes 48.9 seconds.
 Elapsed time:       0 days  0 hours  0 minutes 29.2 seconds.
 File lengths (MBytes):  RWF=     42 Int=      0 D2E=      0 Chk=      6 Scr=      1
 Normal termination of Gaussian 16 at Thu Aug  3 16:03:43 2023.
