 Entering Gaussian System, Link 0=g16
 Initial command:
 /kimariyb/g16/l1.exe "/kimariyb/g16/scratch/Gau-38351.inp" -scrdir="/kimariyb/g16/scratch/"
 Default is to use a total of  10 processors:
                               10 via shared-memory
                                1 via Linda
 Entering Link 1 = /kimariyb/g16/l1.exe PID=     38352.
  
 Copyright (c) 1988-2019, Gaussian, Inc.  All Rights Reserved.
  
 This is part of the Gaussian(R) 16 program.  It is based on
 the Gaussian(R) 09 system (copyright 2009, Gaussian, Inc.),
 the Gaussian(R) 03 system (copyright 2003, Gaussian, Inc.),
 the Gaussian(R) 98 system (copyright 1998, Gaussian, Inc.),
 the Gaussian(R) 94 system (copyright 1995, Gaussian, Inc.),
 the Gaussian 92(TM) system (copyright 1992, Gaussian, Inc.),
 the Gaussian 90(TM) system (copyright 1990, Gaussian, Inc.),
 the Gaussian 88(TM) system (copyright 1988, Gaussian, Inc.),
 the Gaussian 86(TM) system (copyright 1986, Carnegie Mellon
 University), and the Gaussian 82(TM) system (copyright 1983,
 Carnegie Mellon University). Gaussian is a federally registered
 trademark of Gaussian, Inc.
  
 This software contains proprietary and confidential information,
 including trade secrets, belonging to Gaussian, Inc.
  
 This software is provided under written license and may be
 used, copied, transmitted, or stored only in accord with that
 written license.
  
 The following legend is applicable only to US Government
 contracts under FAR:
  
                    RESTRICTED RIGHTS LEGEND
  
 Use, reproduction and disclosure by the US Government is
 subject to restrictions as set forth in subparagraphs (a)
 and (c) of the Commercial Computer Software - Restricted
 Rights clause in FAR 52.227-19.
  
 Gaussian, Inc.
 340 Quinnipiac St., Bldg. 40, Wallingford CT 06492
  
  
 ---------------------------------------------------------------
 Warning -- This program may not be used in any manner that
 competes with the business of Gaussian, Inc. or will provide
 assistance to any competitor of Gaussian, Inc.  The licensee
 of this program is prohibited from giving any competitor of
 Gaussian, Inc. access to this program.  By using this program,
 the user acknowledges that Gaussian, Inc. is engaged in the
 business of creating and licensing software in the field of
 computational chemistry and represents and warrants to the
 licensee that it is not a competitor of Gaussian, Inc. and that
 it will not use this program in any manner prohibited above.
 ---------------------------------------------------------------
  

 Cite this work as:
 Gaussian 16, Revision C.01,
 M. J. Frisch, G. W. Trucks, H. B. Schlegel, G. E. Scuseria, 
 M. A. Robb, J. R. Cheeseman, G. Scalmani, V. Barone, 
 G. A. Petersson, H. Nakatsuji, X. Li, M. Caricato, A. V. Marenich, 
 J. Bloino, B. G. Janesko, R. Gomperts, B. Mennucci, H. P. Hratchian, 
 J. V. Ortiz, A. F. Izmaylov, J. L. Sonnenberg, D. Williams-Young, 
 F. Ding, F. Lipparini, F. Egidi, J. Goings, B. Peng, A. Petrone, 
 T. Henderson, D. Ranasinghe, V. G. Zakrzewski, J. Gao, N. Rega, 
 G. Zheng, W. Liang, M. Hada, M. Ehara, K. Toyota, R. Fukuda, 
 J. Hasegawa, M. Ishida, T. Nakajima, Y. Honda, O. Kitao, H. Nakai, 
 T. Vreven, K. Throssell, J. A. Montgomery, Jr., J. E. Peralta, 
 F. Ogliaro, M. J. Bearpark, J. J. Heyd, E. N. Brothers, K. N. Kudin, 
 V. N. Staroverov, T. A. Keith, R. Kobayashi, J. Normand, 
 K. Raghavachari, A. P. Rendell, J. C. Burant, S. S. Iyengar, 
 J. Tomasi, M. Cossi, J. M. Millam, M. Klene, C. Adamo, R. Cammi, 
 J. W. Ochterski, R. L. Martin, K. Morokuma, O. Farkas, 
 J. B. Foresman, and D. J. Fox, Gaussian, Inc., Wallingford CT, 2019.
 
 ******************************************
 Gaussian 16:  ES64L-G16RevC.01  3-Jul-2019
                 3-Aug-2023 
 ******************************************
 --------------------------------------------
 # opt freq b3lyp/6-311g** scrf(solvent=CCl4)
 --------------------------------------------
 1/18=20,19=15,26=3,38=1/1,3;
 2/9=110,12=2,17=6,18=5,40=1/2;
 3/5=4,6=6,7=101,11=2,25=1,30=1,70=2201,71=1,72=11,74=-5/1,2,3;
 4//1;
 5/5=2,38=5,53=11/2;
 6/7=2,8=2,9=2,10=2,28=1/1;
 7//1,2,3,16;
 1/18=20,19=15,26=3/3(2);
 2/9=110/2;
 99//99;
 2/9=110/2;
 3/5=4,6=6,7=101,11=2,25=1,30=1,70=2205,71=1,72=11,74=-5/1,2,3;
 4/5=5,16=3,69=1/1;
 5/5=2,38=5,53=11/2;
 7//1,2,3,16;
 1/18=20,19=15,26=3/3(-5);
 2/9=110/2;
 6/7=2,8=2,9=2,10=2,19=2,28=1/1;
 99/9=1/99;
 -------------------
 Title Card Required
 -------------------
 Symbolic Z-matrix:
 Charge =  0 Multiplicity = 1
 C                    -2.27637   0.2461    0.05216 
 H                    -1.94213  -0.75842  -0.10313 
 H                    -1.99306   0.56877   1.03222 
 H                    -3.34141   0.28628  -0.04259 
 C                    -1.63234   1.16962  -0.99851 
 H                    -0.66651   0.93642  -1.39563 
 O                    -2.32508   2.33884  -1.44341 
 

 GradGradGradGradGradGradGradGradGradGradGradGradGradGradGradGradGradGrad
 Berny optimization.
 Initialization pass.
                           ----------------------------
                           !    Initial Parameters    !
                           ! (Angstroms and Degrees)  !
 --------------------------                            --------------------------
 ! Name  Definition              Value          Derivative Info.                !
 --------------------------------------------------------------------------------
 ! R1    R(1,2)                  1.07           estimate D2E/DX2                !
 ! R2    R(1,3)                  1.07           estimate D2E/DX2                !
 ! R3    R(1,4)                  1.07           estimate D2E/DX2                !
 ! R4    R(1,5)                  1.54           estimate D2E/DX2                !
 ! R5    R(5,6)                  1.07           estimate D2E/DX2                !
 ! R6    R(5,7)                  1.43           estimate D2E/DX2                !
 ! A1    A(2,1,3)              109.4712         estimate D2E/DX2                !
 ! A2    A(2,1,4)              109.4712         estimate D2E/DX2                !
 ! A3    A(2,1,5)              109.4712         estimate D2E/DX2                !
 ! A4    A(3,1,4)              109.4712         estimate D2E/DX2                !
 ! A5    A(3,1,5)              109.4712         estimate D2E/DX2                !
 ! A6    A(4,1,5)              109.4712         estimate D2E/DX2                !
 ! A7    A(1,5,6)              120.0            estimate D2E/DX2                !
 ! A8    A(1,5,7)              120.0            estimate D2E/DX2                !
 ! A9    A(6,5,7)              120.0            estimate D2E/DX2                !
 ! D1    D(2,1,5,6)            -30.0            estimate D2E/DX2                !
 ! D2    D(2,1,5,7)            150.0            estimate D2E/DX2                !
 ! D3    D(3,1,5,6)             90.0            estimate D2E/DX2                !
 ! D4    D(3,1,5,7)            -90.0            estimate D2E/DX2                !
 ! D5    D(4,1,5,6)           -150.0            estimate D2E/DX2                !
 ! D6    D(4,1,5,7)             30.0            estimate D2E/DX2                !
 --------------------------------------------------------------------------------
 Trust Radius=3.00D-01 FncErr=1.00D-07 GrdErr=1.00D-06 EigMax=2.50D+02 EigMin=1.00D-04
 Number of steps in this run=     31 maximum allowed number of steps=    100.
 GradGradGradGradGradGradGradGradGradGradGradGradGradGradGradGradGradGrad

                          Input orientation:                          
 ---------------------------------------------------------------------
 Center     Atomic      Atomic             Coordinates (Angstroms)
 Number     Number       Type             X           Y           Z
 ---------------------------------------------------------------------
      1          6           0       -2.276375    0.246097    0.052161
      2          1           0       -1.942128   -0.758424   -0.103135
      3          1           0       -1.993064    0.568767    1.032222
      4          1           0       -3.341414    0.286277   -0.042589
      5          6           0       -1.632337    1.169622   -0.998512
      6          1           0       -0.666513    0.936421   -1.395629
      7          8           0       -2.325076    2.338843   -1.443413
 ---------------------------------------------------------------------
                    Distance matrix (angstroms):
                    1          2          3          4          5
     1  C    0.000000
     2  H    1.070000   0.000000
     3  H    1.070000   1.747303   0.000000
     4  H    1.070000   1.747303   1.747303   0.000000
     5  C    1.540000   2.148263   2.148263   2.148263   0.000000
     6  H    2.272510   2.483995   2.790944   3.067328   1.070000
     7  O    2.572683   3.396477   3.061399   2.684824   1.430000
                    6          7
     6  H    0.000000
     7  O    2.172533   0.000000
 Stoichiometry    C2H4O
 Framework group  C1[X(C2H4O)]
 Deg. of freedom    15
 Full point group                 C1      NOp   1
 Largest Abelian subgroup         C1      NOp   1
 Largest concise Abelian subgroup C1      NOp   1
                         Standard orientation:                         
 ---------------------------------------------------------------------
 Center     Atomic      Atomic             Coordinates (Angstroms)
 Number     Number       Type             X           Y           Z
 ---------------------------------------------------------------------
      1          6           0        1.222132   -0.188084    0.000000
      2          1           0        1.929667    0.436313   -0.504403
      3          1           0        1.541702   -0.346470    1.008806
      4          1           0        1.153737   -1.129253   -0.504403
      5          6           0       -0.157693    0.495789    0.000000
      6          1           0       -0.225548    1.563636    0.000000
      7          8           0       -1.348274   -0.296307    0.000000
 ---------------------------------------------------------------------
 Rotational constants (GHZ):          48.8909477           9.0275107           7.9911920
 Standard basis: 6-311G(d,p) (5D, 7F)
 There are    81 symmetry adapted cartesian basis functions of A   symmetry.
 There are    78 symmetry adapted basis functions of A   symmetry.
    78 basis functions,   128 primitive gaussians,    81 cartesian basis functions
    12 alpha electrons       12 beta electrons
       nuclear repulsion energy        65.3449628841 Hartrees.
 NAtoms=    7 NActive=    7 NUniq=    7 SFac= 1.00D+00 NAtFMM=   60 NAOKFM=F Big=F
 Integral buffers will be    131072 words long.
 Raffenetti 2 integral format.
 Two-electron integral symmetry is turned on.
 ------------------------------------------------------------------------------
 Polarizable Continuum Model (PCM)
 =================================
 Model                : PCM.
 Atomic radii         : UFF (Universal Force Field).
 Polarization charges : Total charges.
 Charge compensation  : None.
 Solution method      : On-the-fly selection.
 Cavity type          : Scaled VdW (van der Waals Surface) (Alpha=1.100).
 Cavity algorithm     : GePol (No added spheres)
                        Default sphere list used, NSphG=    7.
                        Lebedev-Laikov grids with approx.  5.0 points / Ang**2.
                        Smoothing algorithm: York/Karplus (Gamma=1.0000).
                        Polarization charges: spherical gaussians, with
                                              point-specific exponents (IZeta= 3).
                        Self-potential: point-specific (ISelfS= 7).
                        Self-field    : sphere-specific E.n sum rule (ISelfD= 2).
 1st derivatives      : Analytical E(r).r(x)/FMM algorithm (CHGder, D1EAlg=3).
                        Cavity 1st derivative terms included.
 Solvent              : CarbonTetraChloride, Eps=   2.228000 Eps(inf)=   2.131892
 ------------------------------------------------------------------------------
 Spheres list:
 ISph  on   Nord     Re0    Alpha      Xe            Ye            Ze
    1   C      1    1.9255  1.100      1.222132     -0.188084     -0.000000
    2   H      2    1.4430  1.100      1.929667      0.436313     -0.504403
    3   H      3    1.4430  1.100      1.541702     -0.346470      1.008806
    4   H      4    1.4430  1.100      1.153737     -1.129253     -0.504403
    5   C      5    1.9255  1.100     -0.157693      0.495789      0.000000
    6   H      6    1.4430  1.100     -0.225548      1.563636      0.000000
    7   O      7    1.7500  1.100     -1.348274     -0.296307     -0.000000
 ------------------------------------------------------------------------------
 One-electron integrals computed using PRISM.
 NBasis=    78 RedAO= T EigKep=  4.40D-03  NBF=    78
 NBsUse=    78 1.00D-06 EigRej= -1.00D+00 NBFU=    78
 ExpMin= 1.03D-01 ExpMax= 8.59D+03 ExpMxC= 1.30D+03 IAcc=3 IRadAn=         5 AccDes= 0.00D+00
 Harris functional with IExCor=  402 and IRadAn=       5 diagonalized for initial guess.
 HarFok:  IExCor=  402 AccDes= 0.00D+00 IRadAn=         5 IDoV= 1 UseB2=F ITyADJ=14
 ICtDFT=  3500011 ScaDFX=  1.000000  1.000000  1.000000  1.000000
 FoFCou: FMM=F IPFlag=           0 FMFlag=      100000 FMFlg1=           0
         NFxFlg=           0 DoJE=T BraDBF=F KetDBF=T FulRan=T
         wScrn=  0.000000 ICntrl=       500 IOpCl=  0 I1Cent=   200000004 NGrid=           0
         NMat0=    1 NMatS0=      1 NMatT0=    0 NMatD0=    1 NMtDS0=    0 NMtDT0=    0
 Petite list used in FoFCou.
 Keep R1 ints in memory in canonical form, NReq=13807180.
 Requested convergence on RMS density matrix=1.00D-08 within 128 cycles.
 Requested convergence on MAX density matrix=1.00D-06.
 Requested convergence on             energy=1.00D-06.
 No special actions if energy rises.
 Inv3:  Mode=1 IEnd=     1660608.
 Iteration    1 A*A^-1 deviation from unit magnitude is 2.00D-15 for    302.
 Iteration    1 A*A^-1 deviation from orthogonality  is 1.76D-15 for    536    107.
 Iteration    1 A^-1*A deviation from unit magnitude is 2.11D-15 for    381.
 Iteration    1 A^-1*A deviation from orthogonality  is 7.49D-16 for    675    616.
 Error on total polarization charges =  0.00369
 SCF Done:  E(RB3LYP) =  -153.828471440     A.U. after   12 cycles
            NFock= 12  Conv=0.16D-08     -V/T= 2.0062

 **********************************************************************

            Population analysis using the SCF Density.

 **********************************************************************

 Orbital symmetries:
       Occupied  (A) (A) (A) (A) (A) (A) (A) (A) (A) (A) (A) (A)
       Virtual   (A) (A) (A) (A) (A) (A) (A) (A) (A) (A) (A) (A)
                 (A) (A) (A) (A) (A) (A) (A) (A) (A) (A) (A) (A)
                 (A) (A) (A) (A) (A) (A) (A) (A) (A) (A) (A) (A)
                 (A) (A) (A) (A) (A) (A) (A) (A) (A) (A) (A) (A)
                 (A) (A) (A) (A) (A) (A) (A) (A) (A) (A) (A) (A)
                 (A) (A) (A) (A) (A) (A)
 The electronic state is 1-A.
 Alpha  occ. eigenvalues --  -19.12469 -10.29024 -10.18723  -0.95318  -0.76418
 Alpha  occ. eigenvalues --   -0.61145  -0.46953  -0.44891  -0.42514  -0.39089
 Alpha  occ. eigenvalues --   -0.32459  -0.26434
 Alpha virt. eigenvalues --   -0.08245   0.05102   0.07353   0.11133   0.11284
 Alpha virt. eigenvalues --    0.16102   0.19783   0.29890   0.31229   0.37334
 Alpha virt. eigenvalues --    0.41244   0.43084   0.46733   0.54167   0.57138
 Alpha virt. eigenvalues --    0.57322   0.59341   0.64615   0.76542   0.80888
 Alpha virt. eigenvalues --    0.84484   0.92005   0.94708   1.14223   1.20254
 Alpha virt. eigenvalues --    1.31955   1.39681   1.41090   1.44320   1.44916
 Alpha virt. eigenvalues --    1.47690   1.49659   1.57245   1.70826   1.74065
 Alpha virt. eigenvalues --    1.80950   1.87662   1.97590   2.04561   2.18992
 Alpha virt. eigenvalues --    2.22381   2.36980   2.37592   2.42899   2.43459
 Alpha virt. eigenvalues --    2.51528   2.57180   2.58224   2.65223   2.71120
 Alpha virt. eigenvalues --    2.84930   2.86475   2.89593   3.10650   3.12449
 Alpha virt. eigenvalues --    3.23150   3.80132   3.82621   3.84703   4.06818
 Alpha virt. eigenvalues --    4.81058   4.88680   5.30612  23.60387  23.93177
 Alpha virt. eigenvalues --   49.79446
          Condensed to atoms (all electrons):
               1          2          3          4          5          6
     1  C    4.995977   0.373978   0.389789   0.384437   0.296668  -0.071161
     2  H    0.373978   0.560077  -0.021475  -0.022881  -0.022098   0.000442
     3  H    0.389789  -0.021475   0.511301  -0.013392  -0.022017   0.002419
     4  H    0.384437  -0.022881  -0.013392   0.511357  -0.024505   0.007584
     5  C    0.296668  -0.022098  -0.022017  -0.024505   4.796490   0.376215
     6  H   -0.071161   0.000442   0.002419   0.007584   0.376215   0.570122
     7  O   -0.067593   0.003232   0.000158   0.007805   0.475948  -0.031462
               7
     1  C   -0.067593
     2  H    0.003232
     3  H    0.000158
     4  H    0.007805
     5  C    0.475948
     6  H   -0.031462
     7  O    8.010494
 Mulliken charges:
               1
     1  C   -0.302096
     2  H    0.128725
     3  H    0.153218
     4  H    0.149595
     5  C    0.123300
     6  H    0.145841
     7  O   -0.398582
 Sum of Mulliken charges =  -0.00000
 Mulliken charges with hydrogens summed into heavy atoms:
               1
     1  C    0.129441
     5  C    0.269141
     7  O   -0.398582
 Electronic spatial extent (au):  <R**2>=            181.7354
 Charge=             -0.0000 electrons
 Dipole moment (field-independent basis, Debye):
    X=              3.5200    Y=              1.6031    Z=              0.0700  Tot=              3.8685
 Quadrupole moment (field-independent basis, Debye-Ang):
   XX=            -21.5678   YY=            -17.0969   ZZ=            -18.0538
   XY=             -1.1735   XZ=              0.1170   YZ=             -0.0268
 Traceless Quadrupole moment (field-independent basis, Debye-Ang):
   XX=             -2.6617   YY=              1.8093   ZZ=              0.8524
   XY=             -1.1735   XZ=              0.1170   YZ=             -0.0268
 Octapole moment (field-independent basis, Debye-Ang**2):
  XXX=              4.2369  YYY=              1.7960  ZZZ=              0.8456  XYY=             -0.5481
  XXY=              0.5268  XXZ=              0.1079  XZZ=             -0.2313  YZZ=             -0.5502
  YYZ=             -0.5368  XYZ=             -0.2728
 Hexadecapole moment (field-independent basis, Debye-Ang**3):
 XXXX=           -165.2276 YYYY=            -40.9669 ZZZZ=            -23.2352 XXXY=              2.0550
 XXXZ=             -0.1719 YYYX=             -0.4363 YYYZ=              0.6918 ZZZX=              1.4039
 ZZZY=             -0.3525 XXYY=            -34.0582 XXZZ=            -28.8030 YYZZ=            -11.4830
 XXYZ=             -0.9041 YYXZ=             -0.6659 ZZXY=              0.1434
 N-N= 6.534496288411D+01 E-N=-4.906271385739D+02  KE= 1.528767487560D+02
 D1PCM: PCM CHGder 1st derivatives, ID1Alg=3 FixD1E=F DoIter=F DoCFld=F I1PDM=0.
 Calling FoFJK, ICntrl=      2127 FMM=F ISym2X=0 I1Cent= 0 IOpClX= 0 NMat=1 NMatS=1 NMatT=0.
 ***** Axes restored to original set *****
 -------------------------------------------------------------------
 Center     Atomic                   Forces (Hartrees/Bohr)
 Number     Number              X              Y              Z
 -------------------------------------------------------------------
      1        6           0.014206642    0.021136120   -0.034918416
      2        1           0.006410803   -0.014667355    0.000085434
      3        1           0.005485363    0.005017165    0.015142156
      4        1          -0.013405488    0.003536894   -0.000236557
      5        6          -0.114928562    0.125830519   -0.023973030
      6        1           0.013683795    0.001671583   -0.007744928
      7        8           0.088547447   -0.142524927    0.051645342
 -------------------------------------------------------------------
 Cartesian Forces:  Max     0.142524927 RMS     0.054897648

 GradGradGradGradGradGradGradGradGradGradGradGradGradGradGradGradGradGrad
 Berny optimization.
 FormGI is forming the generalized inverse of G from B-inverse, IUseBI=4.
 Internal  Forces:  Max     0.175497900 RMS     0.039421369
 Search for a local minimum.
 Step number   1 out of a maximum of   31
 All quantities printed in internal units (Hartrees-Bohrs-Radians)
 Mixed Optimization -- RFO/linear search
 Second derivative matrix not updated -- first step.
 ITU=  0
     Eigenvalues ---    0.00237   0.00237   0.07243   0.07243   0.16000
     Eigenvalues ---    0.16000   0.16000   0.16000   0.22000   0.28519
     Eigenvalues ---    0.37230   0.37230   0.37230   0.37230   0.40989
 RFO step:  Lambda=-6.91647965D-02 EMin= 2.36824213D-03
 Linear search not attempted -- first point.
 Maximum step size (   0.300) exceeded in Quadratic search.
    -- Step size scaled by   0.782
 Iteration  1 RMS(Cart)=  0.04561193 RMS(Int)=  0.01885332
 Iteration  2 RMS(Cart)=  0.01711088 RMS(Int)=  0.00003849
 Iteration  3 RMS(Cart)=  0.00004428 RMS(Int)=  0.00001850
 Iteration  4 RMS(Cart)=  0.00000000 RMS(Int)=  0.00001850
 Variable       Old X    -DE/DX   Delta X   Delta X   Delta X     New X
                                 (Linear)    (Quad)   (Total)
    R1        2.02201   0.01576   0.00000   0.02790   0.02790   2.04991
    R2        2.02201   0.01683   0.00000   0.02981   0.02981   2.05181
    R3        2.02201   0.01350   0.00000   0.02390   0.02390   2.04591
    R4        2.91018  -0.02791   0.00000  -0.06158  -0.06158   2.84860
    R5        2.02201   0.01486   0.00000   0.02632   0.02632   2.04832
    R6        2.70231  -0.17550   0.00000  -0.28636  -0.28636   2.41595
    A1        1.91063  -0.00134   0.00000  -0.00639  -0.00637   1.90426
    A2        1.91063   0.00208   0.00000   0.01137   0.01134   1.92198
    A3        1.91063   0.00234   0.00000   0.00923   0.00922   1.91985
    A4        1.91063   0.00016   0.00000  -0.00192  -0.00197   1.90867
    A5        1.91063  -0.00184   0.00000  -0.00841  -0.00843   1.90221
    A6        1.91063  -0.00141   0.00000  -0.00389  -0.00393   1.90671
    A7        2.09440   0.00288   0.00000   0.01158   0.01157   2.10597
    A8        2.09440   0.00492   0.00000   0.01329   0.01328   2.10768
    A9        2.09440  -0.00780   0.00000  -0.02487  -0.02487   2.06952
    D1       -0.52360   0.00084   0.00000   0.00116   0.00117  -0.52243
    D2        2.61799   0.00138   0.00000   0.00709   0.00711   2.62510
    D3        1.57080  -0.00049   0.00000  -0.00616  -0.00619   1.56461
    D4       -1.57080   0.00006   0.00000  -0.00023  -0.00025  -1.57105
    D5       -2.61799  -0.00228   0.00000  -0.01604  -0.01604  -2.63403
    D6        0.52360  -0.00173   0.00000  -0.01011  -0.01010   0.51350
         Item               Value     Threshold  Converged?
 Maximum Force            0.175498     0.000450     NO 
 RMS     Force            0.039421     0.000300     NO 
 Maximum Displacement     0.210995     0.001800     NO 
 RMS     Displacement     0.061918     0.001200     NO 
 Predicted change in Energy=-3.606167D-02
 GradGradGradGradGradGradGradGradGradGradGradGradGradGradGradGradGradGrad

                          Input orientation:                          
 ---------------------------------------------------------------------
 Center     Atomic      Atomic             Coordinates (Angstroms)
 Number     Number       Type             X           Y           Z
 ---------------------------------------------------------------------
      1          6           0       -2.279386    0.263847    0.033531
      2          1           0       -1.932731   -0.752396   -0.120736
      3          1           0       -1.984562    0.593231    1.025241
      4          1           0       -3.357715    0.306705   -0.053042
      5          6           0       -1.661782    1.180442   -0.991514
      6          1           0       -0.681815    0.968587   -1.403435
      7          8           0       -2.278915    2.227189   -1.388939
 ---------------------------------------------------------------------
                    Distance matrix (angstroms):
                    1          2          3          4          5
     1  C    0.000000
     2  H    1.084766   0.000000
     3  H    1.085773   1.768237   0.000000
     4  H    1.082648   1.776755   1.769277   0.000000
     5  C    1.507415   2.137178   2.125160   2.126109   0.000000
     6  H    2.261363   2.484329   2.781457   3.069542   1.083926
     7  O    2.424486   3.256702   2.929970   2.576178   1.278467
                    6          7
     6  H    0.000000
     7  O    2.033474   0.000000
 Stoichiometry    C2H4O
 Framework group  C1[X(C2H4O)]
 Deg. of freedom    15
 Full point group                 C1      NOp   1
 Largest Abelian subgroup         C1      NOp   1
 Largest concise Abelian subgroup C1      NOp   1
                         Standard orientation:                         
 ---------------------------------------------------------------------
 Center     Atomic      Atomic             Coordinates (Angstroms)
 Number     Number       Type             X           Y           Z
 ---------------------------------------------------------------------
      1          6           0        1.173875   -0.156533   -0.001756
      2          1           0        1.868895    0.505736   -0.506795
      3          1           0        1.498388   -0.296283    1.024920
      4          1           0        1.143250   -1.116076   -0.502220
      5          6           0       -0.206943    0.448151   -0.001709
      6          1           0       -0.339299    1.523959    0.002115
      7          8           0       -1.246603   -0.295880    0.000347
 ---------------------------------------------------------------------
 Rotational constants (GHZ):          52.7907770          10.0387472           8.9018293
 Standard basis: 6-311G(d,p) (5D, 7F)
 There are    81 symmetry adapted cartesian basis functions of A   symmetry.
 There are    78 symmetry adapted basis functions of A   symmetry.
    78 basis functions,   128 primitive gaussians,    81 cartesian basis functions
    12 alpha electrons       12 beta electrons
       nuclear repulsion energy        68.5143429735 Hartrees.
 NAtoms=    7 NActive=    7 NUniq=    7 SFac= 1.00D+00 NAtFMM=   60 NAOKFM=F Big=F
 Integral buffers will be    131072 words long.
 Raffenetti 2 integral format.
 Two-electron integral symmetry is turned on.
 ------------------------------------------------------------------------------
 Polarizable Continuum Model (PCM)
 =================================
 Model                : PCM.
 Atomic radii         : UFF (Universal Force Field).
 Polarization charges : Total charges.
 Charge compensation  : None.
 Solution method      : On-the-fly selection.
 Cavity type          : Scaled VdW (van der Waals Surface) (Alpha=1.100).
 Cavity algorithm     : GePol (No added spheres)
                        Default sphere list used, NSphG=    7.
                        Lebedev-Laikov grids with approx.  5.0 points / Ang**2.
                        Smoothing algorithm: York/Karplus (Gamma=1.0000).
                        Polarization charges: spherical gaussians, with
                                              point-specific exponents (IZeta= 3).
                        Self-potential: point-specific (ISelfS= 7).
                        Self-field    : sphere-specific E.n sum rule (ISelfD= 2).
 1st derivatives      : Analytical E(r).r(x)/FMM algorithm (CHGder, D1EAlg=3).
                        Cavity 1st derivative terms included.
 Solvent              : CarbonTetraChloride, Eps=   2.228000 Eps(inf)=   2.131892
 ------------------------------------------------------------------------------
 Spheres list:
 ISph  on   Nord     Re0    Alpha      Xe            Ye            Ze
    1   C      1    1.9255  1.100      1.173875     -0.156533     -0.001756
    2   H      2    1.4430  1.100      1.868895      0.505736     -0.506795
    3   H      3    1.4430  1.100      1.498388     -0.296283      1.024920
    4   H      4    1.4430  1.100      1.143250     -1.116076     -0.502220
    5   C      5    1.9255  1.100     -0.206943      0.448151     -0.001709
    6   H      6    1.4430  1.100     -0.339299      1.523959      0.002115
    7   O      7    1.7500  1.100     -1.246603     -0.295880      0.000347
 ------------------------------------------------------------------------------
 One-electron integrals computed using PRISM.
 NBasis=    78 RedAO= T EigKep=  3.91D-03  NBF=    78
 NBsUse=    78 1.00D-06 EigRej= -1.00D+00 NBFU=    78
 Initial guess from the checkpoint file:  "/kimariyb/g16/scratch/Gau-38352.chk"
 B after Tr=     0.000000   -0.000000   -0.000000
         Rot=    0.999898    0.001209    0.000242   -0.014236 Ang=   1.64 deg.
 ExpMin= 1.03D-01 ExpMax= 8.59D+03 ExpMxC= 1.30D+03 IAcc=3 IRadAn=         5 AccDes= 0.00D+00
 Harris functional with IExCor=  402 and IRadAn=       5 diagonalized for initial guess.
 HarFok:  IExCor=  402 AccDes= 0.00D+00 IRadAn=         5 IDoV= 1 UseB2=F ITyADJ=14
 ICtDFT=  3500011 ScaDFX=  1.000000  1.000000  1.000000  1.000000
 FoFCou: FMM=F IPFlag=           0 FMFlag=      100000 FMFlg1=           0
         NFxFlg=           0 DoJE=T BraDBF=F KetDBF=T FulRan=T
         wScrn=  0.000000 ICntrl=       500 IOpCl=  0 I1Cent=   200000004 NGrid=           0
         NMat0=    1 NMatS0=      1 NMatT0=    0 NMatD0=    1 NMtDS0=    0 NMtDT0=    0
 Petite list used in FoFCou.
 Keep R1 ints in memory in canonical form, NReq=13807180.
 Requested convergence on RMS density matrix=1.00D-08 within 128 cycles.
 Requested convergence on MAX density matrix=1.00D-06.
 Requested convergence on             energy=1.00D-06.
 No special actions if energy rises.
 Inv3:  Mode=1 IEnd=     1611867.
 Iteration    1 A*A^-1 deviation from unit magnitude is 3.33D-15 for    702.
 Iteration    1 A*A^-1 deviation from orthogonality  is 2.12D-15 for    725    544.
 Iteration    1 A^-1*A deviation from unit magnitude is 3.11D-15 for    702.
 Iteration    1 A^-1*A deviation from orthogonality  is 1.25D-15 for    524    110.
 Error on total polarization charges =  0.00400
 SCF Done:  E(RB3LYP) =  -153.870908756     A.U. after   11 cycles
            NFock= 11  Conv=0.63D-08     -V/T= 2.0046
 D1PCM: PCM CHGder 1st derivatives, ID1Alg=3 FixD1E=F DoIter=F DoCFld=F I1PDM=0.
 Calling FoFJK, ICntrl=      2127 FMM=F ISym2X=0 I1Cent= 0 IOpClX= 0 NMat=1 NMatS=1 NMatT=0.
 ***** Axes restored to original set *****
 -------------------------------------------------------------------
 Center     Atomic                   Forces (Hartrees/Bohr)
 Number     Number              X              Y              Z
 -------------------------------------------------------------------
      1        6           0.007916763    0.001345164   -0.013251064
      2        1           0.001711401   -0.005679979    0.002381124
      3        1           0.002039669    0.000660583    0.005834087
      4        1          -0.004718251    0.001719359    0.001073873
      5        6          -0.061310538    0.075108812   -0.018296837
      6        1           0.010464649   -0.004133298   -0.001614459
      7        8           0.043896307   -0.069020641    0.023873276
 -------------------------------------------------------------------
 Cartesian Forces:  Max     0.075108812 RMS     0.028843501

 GradGradGradGradGradGradGradGradGradGradGradGradGradGradGradGradGradGrad
 Berny optimization.
 Using GEDIIS/GDIIS optimizer.
 FormGI is forming the generalized inverse of G from B-inverse, IUseBI=4.
 Internal  Forces:  Max     0.085123197 RMS     0.019060793
 Search for a local minimum.
 Step number   2 out of a maximum of   31
 All quantities printed in internal units (Hartrees-Bohrs-Radians)
 Mixed Optimization -- RFO/linear search
 Update second derivatives using D2CorX and points    1    2
 DE= -4.24D-02 DEPred=-3.61D-02 R= 1.18D+00
 TightC=F SS=  1.41D+00  RLast= 3.01D-01 DXNew= 5.0454D-01 9.0222D-01
 Trust test= 1.18D+00 RLast= 3.01D-01 DXMaxT set to 5.05D-01
 ITU=  1  0
 Use linear search instead of GDIIS.
     Eigenvalues ---    0.00237   0.00237   0.07178   0.07323   0.15873
     Eigenvalues ---    0.16000   0.16000   0.16073   0.21404   0.28554
     Eigenvalues ---    0.32799   0.37230   0.37230   0.37350   0.37882
 RFO step:  Lambda=-2.82095042D-03 EMin= 2.36799744D-03
 Quartic linear search produced a step of  0.45800.
 Iteration  1 RMS(Cart)=  0.03217973 RMS(Int)=  0.00231302
 Iteration  2 RMS(Cart)=  0.00211537 RMS(Int)=  0.00050529
 Iteration  3 RMS(Cart)=  0.00000275 RMS(Int)=  0.00050529
 Iteration  4 RMS(Cart)=  0.00000000 RMS(Int)=  0.00050529
 Variable       Old X    -DE/DX   Delta X   Delta X   Delta X     New X
                                 (Linear)    (Quad)   (Total)
    R1        2.04991   0.00553   0.01278  -0.00625   0.00653   2.05644
    R2        2.05181   0.00608   0.01365  -0.00599   0.00766   2.05947
    R3        2.04591   0.00468   0.01095  -0.00556   0.00539   2.05130
    R4        2.84860  -0.00435  -0.02820   0.04796   0.01976   2.86836
    R5        2.04832   0.01088   0.01205   0.01614   0.02819   2.07652
    R6        2.41595  -0.08512  -0.13115  -0.02834  -0.15949   2.25646
    A1        1.90426  -0.00268  -0.00292  -0.01387  -0.01690   1.88737
    A2        1.92198  -0.00002   0.00519  -0.01680  -0.01170   1.91027
    A3        1.91985   0.00408   0.00422   0.02248   0.02659   1.94644
    A4        1.90867  -0.00093  -0.00090  -0.00657  -0.00751   1.90116
    A5        1.90221  -0.00017  -0.00386   0.01127   0.00733   1.90954
    A6        1.90671  -0.00031  -0.00180   0.00362   0.00176   1.90847
    A7        2.10597  -0.00737   0.00530  -0.07630  -0.07233   2.03364
    A8        2.10768   0.00835   0.00608   0.03729   0.04204   2.14972
    A9        2.06952  -0.00099  -0.01139   0.03951   0.02678   2.09631
    D1       -0.52243   0.00047   0.00054   0.06900   0.06949  -0.45293
    D2        2.62510   0.00085   0.00326  -0.02985  -0.02657   2.59853
    D3        1.56461  -0.00045  -0.00283   0.07250   0.06966   1.63427
    D4       -1.57105  -0.00007  -0.00012  -0.02636  -0.02640  -1.59745
    D5       -2.63403  -0.00186  -0.00734   0.07337   0.06596  -2.56806
    D6        0.51350  -0.00148  -0.00463  -0.02548  -0.03010   0.48340
         Item               Value     Threshold  Converged?
 Maximum Force            0.085123     0.000450     NO 
 RMS     Force            0.019061     0.000300     NO 
 Maximum Displacement     0.095817     0.001800     NO 
 RMS     Displacement     0.032730     0.001200     NO 
 Predicted change in Energy=-1.047423D-02
 GradGradGradGradGradGradGradGradGradGradGradGradGradGradGradGradGradGrad

                          Input orientation:                          
 ---------------------------------------------------------------------
 Center     Atomic      Atomic             Coordinates (Angstroms)
 Number     Number       Type             X           Y           Z
 ---------------------------------------------------------------------
      1          6           0       -2.276275    0.273472    0.028648
      2          1           0       -1.919751   -0.743394   -0.123332
      3          1           0       -1.992989    0.585669    1.033637
      4          1           0       -3.358417    0.293292   -0.054325
      5          6           0       -1.676609    1.231146   -0.984860
      6          1           0       -0.704338    0.948295   -1.411643
      7          8           0       -2.248527    2.199123   -1.387019
 ---------------------------------------------------------------------
                    Distance matrix (angstroms):
                    1          2          3          4          5
     1  C    0.000000
     2  H    1.088221   0.000000
     3  H    1.089826   1.763619   0.000000
     4  H    1.085500   1.774610   1.770181   0.000000
     5  C    1.517872   2.167985   2.142678   2.138678   0.000000
     6  H    2.236249   2.449242   2.787744   3.052126   1.098844
     7  O    2.390191   3.219225   2.920293   2.576843   1.194069
                    6          7
     6  H    0.000000
     7  O    1.987384   0.000000
 Stoichiometry    C2H4O
 Framework group  C1[X(C2H4O)]
 Deg. of freedom    15
 Full point group                 C1      NOp   1
 Largest Abelian subgroup         C1      NOp   1
 Largest concise Abelian subgroup C1      NOp   1
                         Standard orientation:                         
 ---------------------------------------------------------------------
 Center     Atomic      Atomic             Coordinates (Angstroms)
 Number     Number       Type             X           Y           Z
 ---------------------------------------------------------------------
      1          6           0        1.169137   -0.137435   -0.004487
      2          1           0        1.852604    0.543474   -0.507936
      3          1           0        1.519177   -0.274691    1.018427
      4          1           0        1.176842   -1.097434   -0.511096
      5          6           0       -0.246821    0.408992    0.015981
      6          1           0       -0.351942    1.501472   -0.037827
      7          8           0       -1.216322   -0.287770   -0.003817
 ---------------------------------------------------------------------
 Rotational constants (GHZ):          56.4770129          10.2477120           9.1689460
 Standard basis: 6-311G(d,p) (5D, 7F)
 There are    81 symmetry adapted cartesian basis functions of A   symmetry.
 There are    78 symmetry adapted basis functions of A   symmetry.
    78 basis functions,   128 primitive gaussians,    81 cartesian basis functions
    12 alpha electrons       12 beta electrons
       nuclear repulsion energy        69.9602833443 Hartrees.
 NAtoms=    7 NActive=    7 NUniq=    7 SFac= 1.00D+00 NAtFMM=   60 NAOKFM=F Big=F
 Integral buffers will be    131072 words long.
 Raffenetti 2 integral format.
 Two-electron integral symmetry is turned on.
 ------------------------------------------------------------------------------
 Polarizable Continuum Model (PCM)
 =================================
 Model                : PCM.
 Atomic radii         : UFF (Universal Force Field).
 Polarization charges : Total charges.
 Charge compensation  : None.
 Solution method      : On-the-fly selection.
 Cavity type          : Scaled VdW (van der Waals Surface) (Alpha=1.100).
 Cavity algorithm     : GePol (No added spheres)
                        Default sphere list used, NSphG=    7.
                        Lebedev-Laikov grids with approx.  5.0 points / Ang**2.
                        Smoothing algorithm: York/Karplus (Gamma=1.0000).
                        Polarization charges: spherical gaussians, with
                                              point-specific exponents (IZeta= 3).
                        Self-potential: point-specific (ISelfS= 7).
                        Self-field    : sphere-specific E.n sum rule (ISelfD= 2).
 1st derivatives      : Analytical E(r).r(x)/FMM algorithm (CHGder, D1EAlg=3).
                        Cavity 1st derivative terms included.
 Solvent              : CarbonTetraChloride, Eps=   2.228000 Eps(inf)=   2.131892
 ------------------------------------------------------------------------------
 Spheres list:
 ISph  on   Nord     Re0    Alpha      Xe            Ye            Ze
    1   C      1    1.9255  1.100      1.169137     -0.137435     -0.004487
    2   H      2    1.4430  1.100      1.852604      0.543474     -0.507936
    3   H      3    1.4430  1.100      1.519177     -0.274691      1.018427
    4   H      4    1.4430  1.100      1.176842     -1.097434     -0.511096
    5   C      5    1.9255  1.100     -0.246821      0.408992      0.015981
    6   H      6    1.4430  1.100     -0.351942      1.501472     -0.037827
    7   O      7    1.7500  1.100     -1.216322     -0.287770     -0.003817
 ------------------------------------------------------------------------------
 One-electron integrals computed using PRISM.
 NBasis=    78 RedAO= T EigKep=  3.93D-03  NBF=    78
 NBsUse=    78 1.00D-06 EigRej= -1.00D+00 NBFU=    78
 Initial guess from the checkpoint file:  "/kimariyb/g16/scratch/Gau-38352.chk"
 B after Tr=    -0.000000   -0.000000   -0.000000
         Rot=    0.999974   -0.001130   -0.000363   -0.007126 Ang=  -0.83 deg.
 ExpMin= 1.03D-01 ExpMax= 8.59D+03 ExpMxC= 1.30D+03 IAcc=3 IRadAn=         5 AccDes= 0.00D+00
 Harris functional with IExCor=  402 and IRadAn=       5 diagonalized for initial guess.
 HarFok:  IExCor=  402 AccDes= 0.00D+00 IRadAn=         5 IDoV= 1 UseB2=F ITyADJ=14
 ICtDFT=  3500011 ScaDFX=  1.000000  1.000000  1.000000  1.000000
 FoFCou: FMM=F IPFlag=           0 FMFlag=      100000 FMFlg1=           0
         NFxFlg=           0 DoJE=T BraDBF=F KetDBF=T FulRan=T
         wScrn=  0.000000 ICntrl=       500 IOpCl=  0 I1Cent=   200000004 NGrid=           0
         NMat0=    1 NMatS0=      1 NMatT0=    0 NMatD0=    1 NMtDS0=    0 NMtDT0=    0
 Petite list used in FoFCou.
 Keep R1 ints in memory in canonical form, NReq=13807180.
 Requested convergence on RMS density matrix=1.00D-08 within 128 cycles.
 Requested convergence on MAX density matrix=1.00D-06.
 Requested convergence on             energy=1.00D-06.
 No special actions if energy rises.
 Inv3:  Mode=1 IEnd=     1647243.
 Iteration    1 A*A^-1 deviation from unit magnitude is 2.89D-15 for    726.
 Iteration    1 A*A^-1 deviation from orthogonality  is 1.79D-15 for    704    265.
 Iteration    1 A^-1*A deviation from unit magnitude is 2.89D-15 for    726.
 Iteration    1 A^-1*A deviation from orthogonality  is 1.10D-15 for    671    182.
 Error on total polarization charges =  0.00426
 SCF Done:  E(RB3LYP) =  -153.877267693     A.U. after   11 cycles
            NFock= 11  Conv=0.21D-08     -V/T= 2.0031
 D1PCM: PCM CHGder 1st derivatives, ID1Alg=3 FixD1E=F DoIter=F DoCFld=F I1PDM=0.
 Calling FoFJK, ICntrl=      2127 FMM=F ISym2X=0 I1Cent= 0 IOpClX= 0 NMat=1 NMatS=1 NMatT=0.
 ***** Axes restored to original set *****
 -------------------------------------------------------------------
 Center     Atomic                   Forces (Hartrees/Bohr)
 Number     Number              X              Y              Z
 -------------------------------------------------------------------
      1        6           0.003898267    0.001967059   -0.004353776
      2        1           0.002498372   -0.002098477   -0.000227988
      3        1           0.001073698    0.000639737    0.003462155
      4        1          -0.003653845    0.001949223    0.001186839
      5        6          -0.004879520   -0.021698761    0.003805326
      6        1           0.009281069   -0.000876387    0.001565540
      7        8          -0.008218040    0.020117606   -0.005438096
 -------------------------------------------------------------------
 Cartesian Forces:  Max     0.021698761 RMS     0.007499640

 GradGradGradGradGradGradGradGradGradGradGradGradGradGradGradGradGradGrad
 Berny optimization.
 Using GEDIIS/GDIIS optimizer.
 FormGI is forming the generalized inverse of G from B-inverse, IUseBI=4.
 Internal  Forces:  Max     0.022075845 RMS     0.005618629
 Search for a local minimum.
 Step number   3 out of a maximum of   31
 All quantities printed in internal units (Hartrees-Bohrs-Radians)
 Mixed Optimization -- RFO/linear search
 Update second derivatives using D2CorX and points    1    2    3
 DE= -6.36D-03 DEPred=-1.05D-02 R= 6.07D-01
 TightC=F SS=  1.41D+00  RLast= 2.28D-01 DXNew= 8.4853D-01 6.8446D-01
 Trust test= 6.07D-01 RLast= 2.28D-01 DXMaxT set to 6.84D-01
 ITU=  1  1  0
 Use linear search instead of GDIIS.
     Eigenvalues ---    0.00236   0.00273   0.06981   0.07247   0.15586
     Eigenvalues ---    0.16000   0.16001   0.16063   0.21617   0.29021
     Eigenvalues ---    0.36099   0.37230   0.37231   0.37443   0.71544
 RFO step:  Lambda=-3.35237734D-03 EMin= 2.36424172D-03
 Quartic linear search produced a step of -0.16532.
 Iteration  1 RMS(Cart)=  0.06448453 RMS(Int)=  0.04730635
 Iteration  2 RMS(Cart)=  0.03320668 RMS(Int)=  0.01673864
 Iteration  3 RMS(Cart)=  0.00151035 RMS(Int)=  0.01663959
 Iteration  4 RMS(Cart)=  0.00002594 RMS(Int)=  0.01663956
 Iteration  5 RMS(Cart)=  0.00000088 RMS(Int)=  0.01663956
 Variable       Old X    -DE/DX   Delta X   Delta X   Delta X     New X
                                 (Linear)    (Quad)   (Total)
    R1        2.05644   0.00281  -0.00108   0.01151   0.01043   2.06687
    R2        2.05947   0.00365  -0.00127   0.01398   0.01271   2.07218
    R3        2.05130   0.00359  -0.00089   0.01245   0.01156   2.06286
    R4        2.86836  -0.00301  -0.00327  -0.01027  -0.01354   2.85483
    R5        2.07652   0.00783  -0.00466   0.02940   0.02474   2.10126
    R6        2.25646   0.02208   0.02637  -0.03531  -0.00894   2.24752
    A1        1.88737  -0.00030   0.00279  -0.01349  -0.01069   1.87667
    A2        1.91027   0.00183   0.00193   0.01581   0.01767   1.92795
    A3        1.94644  -0.00107  -0.00440   0.00763   0.00320   1.94964
    A4        1.90116  -0.00075   0.00124  -0.01110  -0.00987   1.89130
    A5        1.90954   0.00007  -0.00121  -0.00306  -0.00428   1.90527
    A6        1.90847   0.00021  -0.00029   0.00358   0.00325   1.91171
    A7        2.03364  -0.00297   0.01196  -0.02103  -0.05109   1.98254
    A8        2.14972   0.00304  -0.00695   0.03764  -0.01050   2.13922
    A9        2.09631   0.00035  -0.00443   0.02535  -0.02535   2.07095
    D1       -0.45293  -0.00220  -0.01149  -0.27847  -0.28401  -0.73694
    D2        2.59853   0.00318   0.00439   0.25890   0.25740   2.85593
    D3        1.63427  -0.00320  -0.01152  -0.29248  -0.29808   1.33618
    D4       -1.59745   0.00218   0.00437   0.24489   0.24333  -1.35413
    D5       -2.56806  -0.00395  -0.01091  -0.30569  -0.31070  -2.87876
    D6        0.48340   0.00143   0.00498   0.23168   0.23071   0.71411
         Item               Value     Threshold  Converged?
 Maximum Force            0.022076     0.000450     NO 
 RMS     Force            0.005619     0.000300     NO 
 Maximum Displacement     0.200146     0.001800     NO 
 RMS     Displacement     0.091503     0.001200     NO 
 Predicted change in Energy=-3.571419D-03
 GradGradGradGradGradGradGradGradGradGradGradGradGradGradGradGradGradGrad

                          Input orientation:                          
 ---------------------------------------------------------------------
 Center     Atomic      Atomic             Coordinates (Angstroms)
 Number     Number       Type             X           Y           Z
 ---------------------------------------------------------------------
      1          6           0       -2.287157    0.261941   -0.002252
      2          1           0       -1.927490   -0.765352   -0.109854
      3          1           0       -1.944771    0.631354    0.971776
      4          1           0       -3.378391    0.287604   -0.015564
      5          6           0       -1.747478    1.159776   -1.090773
      6          1           0       -0.672203    0.988666   -1.316407
      7          8           0       -2.219416    2.223615   -1.335819
 ---------------------------------------------------------------------
                    Distance matrix (angstroms):
                    1          2          3          4          5
     1  C    0.000000
     2  H    1.093741   0.000000
     3  H    1.096552   1.766638   0.000000
     4  H    1.091616   1.795194   1.774337   0.000000
     5  C    1.510708   2.168116   2.138285   2.139307   0.000000
     6  H    2.205269   2.471457   2.642515   3.083364   1.111938
     7  O    2.373006   3.243784   2.817041   2.614275   1.189338
                    6          7
     6  H    0.000000
     7  O    1.979734   0.000000
 Stoichiometry    C2H4O
 Framework group  C1[X(C2H4O)]
 Deg. of freedom    15
 Full point group                 C1      NOp   1
 Largest Abelian subgroup         C1      NOp   1
 Largest concise Abelian subgroup C1      NOp   1
                         Standard orientation:                         
 ---------------------------------------------------------------------
 Center     Atomic      Atomic             Coordinates (Angstroms)
 Number     Number       Type             X           Y           Z
 ---------------------------------------------------------------------
      1          6           0        1.159507   -0.137617    0.005911
      2          1           0        1.893496    0.563505   -0.401468
      3          1           0        1.410069   -0.302168    1.060694
      4          1           0        1.216801   -1.095410   -0.514643
      5          6           0       -0.246490    0.406502   -0.090765
      6          1           0       -0.326534    1.482771    0.176903
      7          8           0       -1.208991   -0.282752    0.023455
 ---------------------------------------------------------------------
 Rotational constants (GHZ):          56.2378277          10.3595755           9.2905086
 Standard basis: 6-311G(d,p) (5D, 7F)
 There are    81 symmetry adapted cartesian basis functions of A   symmetry.
 There are    78 symmetry adapted basis functions of A   symmetry.
    78 basis functions,   128 primitive gaussians,    81 cartesian basis functions
    12 alpha electrons       12 beta electrons
       nuclear repulsion energy        70.1508270578 Hartrees.
 NAtoms=    7 NActive=    7 NUniq=    7 SFac= 1.00D+00 NAtFMM=   60 NAOKFM=F Big=F
 Integral buffers will be    131072 words long.
 Raffenetti 2 integral format.
 Two-electron integral symmetry is turned on.
 ------------------------------------------------------------------------------
 Polarizable Continuum Model (PCM)
 =================================
 Model                : PCM.
 Atomic radii         : UFF (Universal Force Field).
 Polarization charges : Total charges.
 Charge compensation  : None.
 Solution method      : On-the-fly selection.
 Cavity type          : Scaled VdW (van der Waals Surface) (Alpha=1.100).
 Cavity algorithm     : GePol (No added spheres)
                        Default sphere list used, NSphG=    7.
                        Lebedev-Laikov grids with approx.  5.0 points / Ang**2.
                        Smoothing algorithm: York/Karplus (Gamma=1.0000).
                        Polarization charges: spherical gaussians, with
                                              point-specific exponents (IZeta= 3).
                        Self-potential: point-specific (ISelfS= 7).
                        Self-field    : sphere-specific E.n sum rule (ISelfD= 2).
 1st derivatives      : Analytical E(r).r(x)/FMM algorithm (CHGder, D1EAlg=3).
                        Cavity 1st derivative terms included.
 Solvent              : CarbonTetraChloride, Eps=   2.228000 Eps(inf)=   2.131892
 ------------------------------------------------------------------------------
 Spheres list:
 ISph  on   Nord     Re0    Alpha      Xe            Ye            Ze
    1   C      1    1.9255  1.100      1.159507     -0.137617      0.005911
    2   H      2    1.4430  1.100      1.893496      0.563505     -0.401468
    3   H      3    1.4430  1.100      1.410069     -0.302168      1.060694
    4   H      4    1.4430  1.100      1.216801     -1.095410     -0.514643
    5   C      5    1.9255  1.100     -0.246490      0.406502     -0.090765
    6   H      6    1.4430  1.100     -0.326534      1.482771      0.176903
    7   O      7    1.7500  1.100     -1.208991     -0.282752      0.023455
 ------------------------------------------------------------------------------
 One-electron integrals computed using PRISM.
 NBasis=    78 RedAO= T EigKep=  4.05D-03  NBF=    78
 NBsUse=    78 1.00D-06 EigRej= -1.00D+00 NBFU=    78
 Initial guess from the checkpoint file:  "/kimariyb/g16/scratch/Gau-38352.chk"
 B after Tr=     0.000000    0.000000   -0.000000
         Rot=    0.999971   -0.005494    0.005184    0.001218 Ang=  -0.88 deg.
 ExpMin= 1.03D-01 ExpMax= 8.59D+03 ExpMxC= 1.30D+03 IAcc=3 IRadAn=         5 AccDes= 0.00D+00
 Harris functional with IExCor=  402 and IRadAn=       5 diagonalized for initial guess.
 HarFok:  IExCor=  402 AccDes= 0.00D+00 IRadAn=         5 IDoV= 1 UseB2=F ITyADJ=14
 ICtDFT=  3500011 ScaDFX=  1.000000  1.000000  1.000000  1.000000
 FoFCou: FMM=F IPFlag=           0 FMFlag=      100000 FMFlg1=           0
         NFxFlg=           0 DoJE=T BraDBF=F KetDBF=T FulRan=T
         wScrn=  0.000000 ICntrl=       500 IOpCl=  0 I1Cent=   200000004 NGrid=           0
         NMat0=    1 NMatS0=      1 NMatT0=    0 NMatD0=    1 NMtDS0=    0 NMtDT0=    0
 Petite list used in FoFCou.
 Keep R1 ints in memory in canonical form, NReq=13807180.
 Requested convergence on RMS density matrix=1.00D-08 within 128 cycles.
 Requested convergence on MAX density matrix=1.00D-06.
 Requested convergence on             energy=1.00D-06.
 No special actions if energy rises.
 Inv3:  Mode=1 IEnd=     1598700.
 Iteration    1 A*A^-1 deviation from unit magnitude is 3.44D-15 for    726.
 Iteration    1 A*A^-1 deviation from orthogonality  is 9.99D-16 for    730    257.
 Iteration    1 A^-1*A deviation from unit magnitude is 3.66D-15 for    726.
 Iteration    1 A^-1*A deviation from orthogonality  is 1.04D-15 for    639    217.
 Error on total polarization charges =  0.00436
 SCF Done:  E(RB3LYP) =  -153.870110371     A.U. after   11 cycles
            NFock= 11  Conv=0.25D-08     -V/T= 2.0031
 D1PCM: PCM CHGder 1st derivatives, ID1Alg=3 FixD1E=F DoIter=F DoCFld=F I1PDM=0.
 Calling FoFJK, ICntrl=      2127 FMM=F ISym2X=0 I1Cent= 0 IOpClX= 0 NMat=1 NMatS=1 NMatT=0.
 ***** Axes restored to original set *****
 -------------------------------------------------------------------
 Center     Atomic                   Forces (Hartrees/Bohr)
 Number     Number              X              Y              Z
 -------------------------------------------------------------------
      1        6          -0.009469304   -0.013042124   -0.010668853
      2        1          -0.001499697    0.000067671    0.000471137
      3        1           0.001841547    0.002642690   -0.003231444
      4        1          -0.000494603   -0.001117212    0.002295644
      5        6           0.034002015   -0.001021822    0.048395522
      6        1          -0.002051659   -0.009694772   -0.014681462
      7        8          -0.022328299    0.022165569   -0.022580545
 -------------------------------------------------------------------
 Cartesian Forces:  Max     0.048395522 RMS     0.016498834

 GradGradGradGradGradGradGradGradGradGradGradGradGradGradGradGradGradGrad
 Berny optimization.
 Using GEDIIS/GDIIS optimizer.
 FormGI is forming the generalized inverse of G from B-inverse, IUseBI=4.
 Internal  Forces:  Max     0.033340030 RMS     0.010133984
 Search for a local minimum.
 Step number   4 out of a maximum of   31
 All quantities printed in internal units (Hartrees-Bohrs-Radians)
 Mixed Optimization -- RFO/linear search
 Update second derivatives using D2CorX and points    1    2    4    3
 DE=  7.16D-03 DEPred=-3.57D-03 R=-2.00D+00
 Trust test=-2.00D+00 RLast= 6.71D-01 DXMaxT set to 3.42D-01
 ITU= -1  1  1  0
 Use linear search instead of GDIIS.
     Eigenvalues ---    0.00234   0.05126   0.06763   0.07283   0.15401
     Eigenvalues ---    0.15978   0.16020   0.16653   0.21907   0.26347
     Eigenvalues ---    0.32635   0.37115   0.37231   0.37236   0.60804
 RFO step:  Lambda=-2.12459566D-03 EMin= 2.33601213D-03
 Quartic linear search produced a step of -0.79217.
 Iteration  1 RMS(Cart)=  0.05467236 RMS(Int)=  0.04127999
 Iteration  2 RMS(Cart)=  0.02986830 RMS(Int)=  0.00348345
 Iteration  3 RMS(Cart)=  0.00105672 RMS(Int)=  0.00330012
 Iteration  4 RMS(Cart)=  0.00000075 RMS(Int)=  0.00330012
 Variable       Old X    -DE/DX   Delta X   Delta X   Delta X     New X
                                 (Linear)    (Quad)   (Total)
    R1        2.06687  -0.00060  -0.00826   0.01196   0.00369   2.07056
    R2        2.07218  -0.00140  -0.01007   0.01427   0.00420   2.07638
    R3        2.06286   0.00044  -0.00916   0.01444   0.00528   2.06813
    R4        2.85483   0.00222   0.01072  -0.02266  -0.01194   2.84289
    R5        2.10126   0.00249  -0.01960   0.02726   0.00765   2.10891
    R6        2.24752   0.03334   0.00708   0.05130   0.05838   2.30590
    A1        1.87667   0.00185   0.00847  -0.00894  -0.00055   1.87612
    A2        1.92795  -0.00189  -0.01400   0.02848   0.01448   1.94243
    A3        1.94964   0.00226  -0.00253   0.00030  -0.00227   1.94738
    A4        1.89130   0.00075   0.00782  -0.01171  -0.00388   1.88742
    A5        1.90527  -0.00766   0.00339  -0.02048  -0.01712   1.88814
    A6        1.91171   0.00446  -0.00257   0.01088   0.00832   1.92003
    A7        1.98254   0.00512   0.04047  -0.00717   0.04203   2.02457
    A8        2.13922   0.00746   0.00832   0.01098   0.02803   2.16725
    A9        2.07095  -0.00217   0.02008  -0.00901   0.01981   2.09076
    D1       -0.73694   0.01250   0.22498  -0.10207   0.12278  -0.61416
    D2        2.85593  -0.01126  -0.20390  -0.08709  -0.29093   2.56500
    D3        1.33618   0.01124   0.23613  -0.12618   0.10989   1.44608
    D4       -1.35413  -0.01252  -0.19275  -0.11120  -0.30382  -1.65795
    D5       -2.87876   0.01024   0.24612  -0.14612   0.09990  -2.77886
    D6        0.71411  -0.01352  -0.18276  -0.13114  -0.31381   0.40030
         Item               Value     Threshold  Converged?
 Maximum Force            0.033340     0.000450     NO 
 RMS     Force            0.010134     0.000300     NO 
 Maximum Displacement     0.185979     0.001800     NO 
 RMS     Displacement     0.077911     0.001200     NO 
 Predicted change in Energy=-1.816590D-03
 GradGradGradGradGradGradGradGradGradGradGradGradGradGradGradGradGradGrad

                          Input orientation:                          
 ---------------------------------------------------------------------
 Center     Atomic      Atomic             Coordinates (Angstroms)
 Number     Number       Type             X           Y           Z
 ---------------------------------------------------------------------
      1          6           0       -2.285118    0.263755    0.012466
      2          1           0       -1.942944   -0.764345   -0.150249
      3          1           0       -1.940619    0.572695    1.009050
      4          1           0       -3.377588    0.326480   -0.005025
      5          6           0       -1.698955    1.208796   -1.000696
      6          1           0       -0.655964    0.987379   -1.330205
      7          8           0       -2.275719    2.192843   -1.434235
 ---------------------------------------------------------------------
                    Distance matrix (angstroms):
                    1          2          3          4          5
     1  C    0.000000
     2  H    1.095695   0.000000
     3  H    1.098773   1.769648   0.000000
     4  H    1.094410   1.808091   1.775909   0.000000
     5  C    1.504390   2.162424   2.121817   2.141881   0.000000
     6  H    2.231713   2.473287   2.700818   3.098407   1.115989
     7  O    2.411310   3.241037   2.950732   2.596164   1.220230
                    6          7
     6  H    0.000000
     7  O    2.021775   0.000000
 Stoichiometry    C2H4O
 Framework group  C1[X(C2H4O)]
 Deg. of freedom    15
 Full point group                 C1      NOp   1
 Largest Abelian subgroup         C1      NOp   1
 Largest concise Abelian subgroup C1      NOp   1
                         Standard orientation:                         
 ---------------------------------------------------------------------
 Center     Atomic      Atomic             Coordinates (Angstroms)
 Number     Number       Type             X           Y           Z
 ---------------------------------------------------------------------
      1          6           0        1.170865   -0.145299   -0.006361
      2          1           0        1.857810    0.494384   -0.571569
      3          1           0        1.525893   -0.173884    1.033081
      4          1           0        1.170417   -1.168549   -0.394549
      5          6           0       -0.228451    0.407055   -0.009462
      6          1           0       -0.315375    1.519390    0.014760
      7          8           0       -1.236654   -0.280235    0.001652
 ---------------------------------------------------------------------
 Rotational constants (GHZ):          56.1523585          10.0999403           9.0389248
 Standard basis: 6-311G(d,p) (5D, 7F)
 There are    81 symmetry adapted cartesian basis functions of A   symmetry.
 There are    78 symmetry adapted basis functions of A   symmetry.
    78 basis functions,   128 primitive gaussians,    81 cartesian basis functions
    12 alpha electrons       12 beta electrons
       nuclear repulsion energy        69.3524397661 Hartrees.
 NAtoms=    7 NActive=    7 NUniq=    7 SFac= 1.00D+00 NAtFMM=   60 NAOKFM=F Big=F
 Integral buffers will be    131072 words long.
 Raffenetti 2 integral format.
 Two-electron integral symmetry is turned on.
 ------------------------------------------------------------------------------
 Polarizable Continuum Model (PCM)
 =================================
 Model                : PCM.
 Atomic radii         : UFF (Universal Force Field).
 Polarization charges : Total charges.
 Charge compensation  : None.
 Solution method      : On-the-fly selection.
 Cavity type          : Scaled VdW (van der Waals Surface) (Alpha=1.100).
 Cavity algorithm     : GePol (No added spheres)
                        Default sphere list used, NSphG=    7.
                        Lebedev-Laikov grids with approx.  5.0 points / Ang**2.
                        Smoothing algorithm: York/Karplus (Gamma=1.0000).
                        Polarization charges: spherical gaussians, with
                                              point-specific exponents (IZeta= 3).
                        Self-potential: point-specific (ISelfS= 7).
                        Self-field    : sphere-specific E.n sum rule (ISelfD= 2).
 1st derivatives      : Analytical E(r).r(x)/FMM algorithm (CHGder, D1EAlg=3).
                        Cavity 1st derivative terms included.
 Solvent              : CarbonTetraChloride, Eps=   2.228000 Eps(inf)=   2.131892
 ------------------------------------------------------------------------------
 Spheres list:
 ISph  on   Nord     Re0    Alpha      Xe            Ye            Ze
    1   C      1    1.9255  1.100      1.170865     -0.145299     -0.006361
    2   H      2    1.4430  1.100      1.857810      0.494384     -0.571569
    3   H      3    1.4430  1.100      1.525893     -0.173884      1.033081
    4   H      4    1.4430  1.100      1.170417     -1.168549     -0.394549
    5   C      5    1.9255  1.100     -0.228451      0.407055     -0.009462
    6   H      6    1.4430  1.100     -0.315375      1.519390      0.014760
    7   O      7    1.7500  1.100     -1.236654     -0.280235      0.001652
 ------------------------------------------------------------------------------
 One-electron integrals computed using PRISM.
 NBasis=    78 RedAO= T EigKep=  3.83D-03  NBF=    78
 NBsUse=    78 1.00D-06 EigRej= -1.00D+00 NBFU=    78
 Lowest energy guess from the checkpoint file:  "/kimariyb/g16/scratch/Gau-38352.chk"
 B after Tr=     0.000000    0.000000   -0.000000
         Rot=    0.999736    0.022529   -0.000240    0.004581 Ang=   2.63 deg.
 B after Tr=     0.000000   -0.000000    0.000000
         Rot=    0.999570    0.028618   -0.005235    0.003587 Ang=   3.36 deg.
 Keep R1 ints in memory in canonical form, NReq=13807180.
 Requested convergence on RMS density matrix=1.00D-08 within 128 cycles.
 Requested convergence on MAX density matrix=1.00D-06.
 Requested convergence on             energy=1.00D-06.
 No special actions if energy rises.
 Inv3:  Mode=1 IEnd=     1638363.
 Iteration    1 A*A^-1 deviation from unit magnitude is 2.78D-15 for    708.
 Iteration    1 A*A^-1 deviation from orthogonality  is 1.89D-15 for    739    214.
 Iteration    1 A^-1*A deviation from unit magnitude is 2.78D-15 for    708.
 Iteration    1 A^-1*A deviation from orthogonality  is 1.40D-15 for    736    315.
 Error on total polarization charges =  0.00429
 SCF Done:  E(RB3LYP) =  -153.878281434     A.U. after   10 cycles
            NFock= 10  Conv=0.58D-08     -V/T= 2.0040
 D1PCM: PCM CHGder 1st derivatives, ID1Alg=3 FixD1E=F DoIter=F DoCFld=F I1PDM=0.
 Calling FoFJK, ICntrl=      2127 FMM=F ISym2X=0 I1Cent= 0 IOpClX= 0 NMat=1 NMatS=1 NMatT=0.
 ***** Axes restored to original set *****
 -------------------------------------------------------------------
 Center     Atomic                   Forces (Hartrees/Bohr)
 Number     Number              X              Y              Z
 -------------------------------------------------------------------
      1        6          -0.002191404   -0.000100141   -0.000057708
      2        1          -0.001113262    0.002007749    0.000043046
      3        1           0.000491422   -0.000899387   -0.001196823
      4        1           0.002453631   -0.000722901    0.000316223
      5        6          -0.005398443    0.017020032   -0.006982423
      6        1          -0.003165894    0.000188264    0.001350928
      7        8           0.008923951   -0.017493616    0.006526756
 -------------------------------------------------------------------
 Cartesian Forces:  Max     0.017493616 RMS     0.006275189

 GradGradGradGradGradGradGradGradGradGradGradGradGradGradGradGradGradGrad
 Berny optimization.
 Using GEDIIS/GDIIS optimizer.
 FormGI is forming the generalized inverse of G from B-inverse, IUseBI=4.
 Internal  Forces:  Max     0.020644894 RMS     0.004660284
 Search for a local minimum.
 Step number   5 out of a maximum of   31
 All quantities printed in internal units (Hartrees-Bohrs-Radians)
 Mixed Optimization -- RFO/linear search
 Update second derivatives using D2CorX and points    1    2    4    3    5
 DE= -1.01D-03 DEPred=-1.82D-03 R= 5.58D-01
 TightC=F SS=  1.41D+00  RLast= 3.53D-01 DXNew= 5.7556D-01 1.0598D+00
 Trust test= 5.58D-01 RLast= 3.53D-01 DXMaxT set to 5.76D-01
 ITU=  1 -1  1  1  0
 Use linear search instead of GDIIS.
     Eigenvalues ---    0.00199   0.04987   0.06301   0.07465   0.14451
     Eigenvalues ---    0.15955   0.16020   0.16683   0.21103   0.26925
     Eigenvalues ---    0.33292   0.37207   0.37232   0.37595   0.89138
 RFO step:  Lambda=-5.28865461D-04 EMin= 1.99479780D-03
 Quartic linear search produced a step of -0.26224.
 Iteration  1 RMS(Cart)=  0.05704987 RMS(Int)=  0.00187481
 Iteration  2 RMS(Cart)=  0.00193758 RMS(Int)=  0.00022018
 Iteration  3 RMS(Cart)=  0.00000203 RMS(Int)=  0.00022018
 Iteration  4 RMS(Cart)=  0.00000000 RMS(Int)=  0.00022018
 Variable       Old X    -DE/DX   Delta X   Delta X   Delta X     New X
                                 (Linear)    (Quad)   (Total)
    R1        2.07056  -0.00224  -0.00370  -0.00017  -0.00388   2.06669
    R2        2.07638  -0.00119  -0.00443   0.00317  -0.00126   2.07512
    R3        2.06813  -0.00249  -0.00442   0.00062  -0.00380   2.06434
    R4        2.84289  -0.00064   0.00668  -0.00652   0.00016   2.84304
    R5        2.10891  -0.00339  -0.00850   0.00632  -0.00217   2.10674
    R6        2.30590  -0.02064  -0.01296  -0.00966  -0.02262   2.28328
    A1        1.87612  -0.00019   0.00295  -0.00673  -0.00374   1.87238
    A2        1.94243  -0.00058  -0.00843   0.00614  -0.00221   1.94022
    A3        1.94738  -0.00035  -0.00024  -0.00367  -0.00386   1.94352
    A4        1.88742   0.00022   0.00360  -0.00092   0.00268   1.89009
    A5        1.88814  -0.00012   0.00561  -0.00591  -0.00029   1.88785
    A6        1.92003   0.00102  -0.00303   0.01034   0.00735   1.92738
    A7        2.02457  -0.00054   0.00238  -0.01341  -0.01045   2.01412
    A8        2.16725  -0.00015  -0.00460   0.00811   0.00409   2.17134
    A9        2.09076   0.00072   0.00145   0.00474   0.00677   2.09753
    D1       -0.61416   0.00009   0.04228  -0.15579  -0.11353  -0.72769
    D2        2.56500  -0.00079   0.00879  -0.13836  -0.12958   2.43542
    D3        1.44608  -0.00042   0.04935  -0.16985  -0.12052   1.32556
    D4       -1.65795  -0.00129   0.01587  -0.15241  -0.13656  -1.79451
    D5       -2.77886   0.00034   0.05528  -0.16858  -0.11327  -2.89212
    D6        0.40030  -0.00053   0.02179  -0.15114  -0.12931   0.27099
         Item               Value     Threshold  Converged?
 Maximum Force            0.020645     0.000450     NO 
 RMS     Force            0.004660     0.000300     NO 
 Maximum Displacement     0.116073     0.001800     NO 
 RMS     Displacement     0.057052     0.001200     NO 
 Predicted change in Energy=-4.765562D-04
 GradGradGradGradGradGradGradGradGradGradGradGradGradGradGradGradGradGrad

                          Input orientation:                          
 ---------------------------------------------------------------------
 Center     Atomic      Atomic             Coordinates (Angstroms)
 Number     Number       Type             X           Y           Z
 ---------------------------------------------------------------------
      1          6           0       -2.287577    0.267152    0.010932
      2          1           0       -1.979825   -0.763769   -0.185409
      3          1           0       -1.901563    0.539611    1.002193
      4          1           0       -3.376106    0.356964    0.030274
      5          6           0       -1.700186    1.215883   -0.998186
      6          1           0       -0.635294    1.027078   -1.268782
      7          8           0       -2.296354    2.144685   -1.489916
 ---------------------------------------------------------------------
                    Distance matrix (angstroms):
                    1          2          3          4          5
     1  C    0.000000
     2  H    1.093644   0.000000
     3  H    1.098107   1.765028   0.000000
     4  H    1.092400   1.803375   1.775462   0.000000
     5  C    1.504473   2.158199   2.121182   2.145735   0.000000
     6  H    2.223779   2.487688   2.645447   3.106228   1.114839
     7  O    2.403696   3.203284   2.990440   2.583174   1.208258
                    6          7
     6  H    0.000000
     7  O    2.014216   0.000000
 Stoichiometry    C2H4O
 Framework group  C1[X(C2H4O)]
 Deg. of freedom    15
 Full point group                 C1      NOp   1
 Largest Abelian subgroup         C1      NOp   1
 Largest concise Abelian subgroup C1      NOp   1
                         Standard orientation:                         
 ---------------------------------------------------------------------
 Center     Atomic      Atomic             Coordinates (Angstroms)
 Number     Number       Type             X           Y           Z
 ---------------------------------------------------------------------
      1          6           0        1.168260   -0.144834   -0.006622
      2          1           0        1.819097    0.428965   -0.672372
      3          1           0        1.573982   -0.048102    1.009189
      4          1           0        1.164522   -1.203753   -0.274976
      5          6           0       -0.233429    0.401706   -0.005873
      6          1           0       -0.313156    1.513576    0.010059
      7          8           0       -1.231679   -0.278990    0.000384
 ---------------------------------------------------------------------
 Rotational constants (GHZ):          56.7252807          10.1520589           9.0941413
 Standard basis: 6-311G(d,p) (5D, 7F)
 There are    81 symmetry adapted cartesian basis functions of A   symmetry.
 There are    78 symmetry adapted basis functions of A   symmetry.
    78 basis functions,   128 primitive gaussians,    81 cartesian basis functions
    12 alpha electrons       12 beta electrons
       nuclear repulsion energy        69.6290284052 Hartrees.
 NAtoms=    7 NActive=    7 NUniq=    7 SFac= 1.00D+00 NAtFMM=   60 NAOKFM=F Big=F
 Integral buffers will be    131072 words long.
 Raffenetti 2 integral format.
 Two-electron integral symmetry is turned on.
 ------------------------------------------------------------------------------
 Polarizable Continuum Model (PCM)
 =================================
 Model                : PCM.
 Atomic radii         : UFF (Universal Force Field).
 Polarization charges : Total charges.
 Charge compensation  : None.
 Solution method      : On-the-fly selection.
 Cavity type          : Scaled VdW (van der Waals Surface) (Alpha=1.100).
 Cavity algorithm     : GePol (No added spheres)
                        Default sphere list used, NSphG=    7.
                        Lebedev-Laikov grids with approx.  5.0 points / Ang**2.
                        Smoothing algorithm: York/Karplus (Gamma=1.0000).
                        Polarization charges: spherical gaussians, with
                                              point-specific exponents (IZeta= 3).
                        Self-potential: point-specific (ISelfS= 7).
                        Self-field    : sphere-specific E.n sum rule (ISelfD= 2).
 1st derivatives      : Analytical E(r).r(x)/FMM algorithm (CHGder, D1EAlg=3).
                        Cavity 1st derivative terms included.
 Solvent              : CarbonTetraChloride, Eps=   2.228000 Eps(inf)=   2.131892
 ------------------------------------------------------------------------------
 Spheres list:
 ISph  on   Nord     Re0    Alpha      Xe            Ye            Ze
    1   C      1    1.9255  1.100      1.168260     -0.144834     -0.006622
    2   H      2    1.4430  1.100      1.819097      0.428965     -0.672372
    3   H      3    1.4430  1.100      1.573982     -0.048102      1.009189
    4   H      4    1.4430  1.100      1.164522     -1.203753     -0.274976
    5   C      5    1.9255  1.100     -0.233429      0.401706     -0.005873
    6   H      6    1.4430  1.100     -0.313156      1.513576      0.010059
    7   O      7    1.7500  1.100     -1.231679     -0.278990      0.000384
 ------------------------------------------------------------------------------
 One-electron integrals computed using PRISM.
 NBasis=    78 RedAO= T EigKep=  3.75D-03  NBF=    78
 NBsUse=    78 1.00D-06 EigRej= -1.00D+00 NBFU=    78
 Initial guess from the checkpoint file:  "/kimariyb/g16/scratch/Gau-38352.chk"
 B after Tr=    -0.000000   -0.000000   -0.000000
         Rot=    0.999680    0.025142   -0.002565   -0.001006 Ang=   2.90 deg.
 ExpMin= 1.03D-01 ExpMax= 8.59D+03 ExpMxC= 1.30D+03 IAcc=3 IRadAn=         5 AccDes= 0.00D+00
 Harris functional with IExCor=  402 and IRadAn=       5 diagonalized for initial guess.
 HarFok:  IExCor=  402 AccDes= 0.00D+00 IRadAn=         5 IDoV= 1 UseB2=F ITyADJ=14
 ICtDFT=  3500011 ScaDFX=  1.000000  1.000000  1.000000  1.000000
 FoFCou: FMM=F IPFlag=           0 FMFlag=      100000 FMFlg1=           0
         NFxFlg=           0 DoJE=T BraDBF=F KetDBF=T FulRan=T
         wScrn=  0.000000 ICntrl=       500 IOpCl=  0 I1Cent=   200000004 NGrid=           0
         NMat0=    1 NMatS0=      1 NMatT0=    0 NMatD0=    1 NMtDS0=    0 NMtDT0=    0
 Petite list used in FoFCou.
 Keep R1 ints in memory in canonical form, NReq=13807180.
 Requested convergence on RMS density matrix=1.00D-08 within 128 cycles.
 Requested convergence on MAX density matrix=1.00D-06.
 Requested convergence on             energy=1.00D-06.
 No special actions if energy rises.
 Inv3:  Mode=1 IEnd=     1638363.
 Iteration    1 A*A^-1 deviation from unit magnitude is 3.22D-15 for     21.
 Iteration    1 A*A^-1 deviation from orthogonality  is 1.63D-15 for    702    197.
 Iteration    1 A^-1*A deviation from unit magnitude is 3.00D-15 for     21.
 Iteration    1 A^-1*A deviation from orthogonality  is 1.50D-15 for    584     81.
 Error on total polarization charges =  0.00430
 SCF Done:  E(RB3LYP) =  -153.878888745     A.U. after   10 cycles
            NFock= 10  Conv=0.47D-08     -V/T= 2.0037
 D1PCM: PCM CHGder 1st derivatives, ID1Alg=3 FixD1E=F DoIter=F DoCFld=F I1PDM=0.
 Calling FoFJK, ICntrl=      2127 FMM=F ISym2X=0 I1Cent= 0 IOpClX= 0 NMat=1 NMatS=1 NMatT=0.
 ***** Axes restored to original set *****
 -------------------------------------------------------------------
 Center     Atomic                   Forces (Hartrees/Bohr)
 Number     Number              X              Y              Z
 -------------------------------------------------------------------
      1        6          -0.001605335    0.001281191    0.001574261
      2        1          -0.000282932    0.000521332   -0.000240385
      3        1           0.000693240   -0.001029538   -0.000730247
      4        1           0.001301042   -0.000516029   -0.000468183
      5        6           0.000256370    0.001998532   -0.001709327
      6        1          -0.001589500    0.000236312    0.000953045
      7        8           0.001227114   -0.002491800    0.000620836
 -------------------------------------------------------------------
 Cartesian Forces:  Max     0.002491800 RMS     0.001193855

 GradGradGradGradGradGradGradGradGradGradGradGradGradGradGradGradGradGrad
 Berny optimization.
 Using GEDIIS/GDIIS optimizer.
 FormGI is forming the generalized inverse of G from B-inverse, IUseBI=4.
 Internal  Forces:  Max     0.002771670 RMS     0.000899748
 Search for a local minimum.
 Step number   6 out of a maximum of   31
 All quantities printed in internal units (Hartrees-Bohrs-Radians)
 Mixed Optimization -- En-DIIS/RFO-DIIS
 Update second derivatives using D2CorX and points    2    5    6
 DE= -6.07D-04 DEPred=-4.77D-04 R= 1.27D+00
 TightC=F SS=  1.41D+00  RLast= 3.05D-01 DXNew= 9.6798D-01 9.1595D-01
 Trust test= 1.27D+00 RLast= 3.05D-01 DXMaxT set to 9.16D-01
 ITU=  1  1 -1  1  1  0
 Use linear search instead of GDIIS.
     Eigenvalues ---    0.00141   0.04763   0.06412   0.07281   0.14524
     Eigenvalues ---    0.16006   0.16037   0.16693   0.21510   0.26769
     Eigenvalues ---    0.34075   0.37166   0.37259   0.37661   0.95778
 RFO step:  Lambda=-2.37073115D-04 EMin= 1.40688085D-03
 Quartic linear search produced a step of  0.58765.
 Iteration  1 RMS(Cart)=  0.08690091 RMS(Int)=  0.00430589
 Iteration  2 RMS(Cart)=  0.00448138 RMS(Int)=  0.00003152
 Iteration  3 RMS(Cart)=  0.00000986 RMS(Int)=  0.00003020
 Iteration  4 RMS(Cart)=  0.00000000 RMS(Int)=  0.00003020
 Variable       Old X    -DE/DX   Delta X   Delta X   Delta X     New X
                                 (Linear)    (Quad)   (Total)
    R1        2.06669  -0.00053  -0.00228   0.00146  -0.00082   2.06587
    R2        2.07512  -0.00067  -0.00074   0.00021  -0.00054   2.07459
    R3        2.06434  -0.00135  -0.00223  -0.00147  -0.00370   2.06064
    R4        2.84304  -0.00011   0.00009  -0.00284  -0.00275   2.84029
    R5        2.10674  -0.00179  -0.00128  -0.00100  -0.00228   2.10446
    R6        2.28328  -0.00277  -0.01330   0.00466  -0.00863   2.27465
    A1        1.87238  -0.00030  -0.00220  -0.00647  -0.00871   1.86367
    A2        1.94022  -0.00018  -0.00130  -0.00139  -0.00269   1.93754
    A3        1.94352  -0.00066  -0.00227  -0.00819  -0.01047   1.93305
    A4        1.89009   0.00065   0.00157   0.01133   0.01282   1.90291
    A5        1.88785   0.00038  -0.00017   0.00369   0.00346   1.89131
    A6        1.92738   0.00016   0.00432   0.00156   0.00584   1.93322
    A7        2.01412  -0.00058  -0.00614  -0.00477  -0.01094   2.00318
    A8        2.17134   0.00037   0.00240   0.00482   0.00720   2.17854
    A9        2.09753   0.00021   0.00398  -0.00011   0.00384   2.10137
    D1       -0.72769  -0.00027  -0.06672  -0.11736  -0.18409  -0.91178
    D2        2.43542  -0.00042  -0.07615  -0.11421  -0.19037   2.24505
    D3        1.32556  -0.00078  -0.07082  -0.12769  -0.19853   1.12703
[...]
     3   1     0.50  -0.23  -0.25    -0.11  -0.09   0.14    -0.25  -0.43   0.34
     4   1     0.43   0.05  -0.00    -0.07   0.03  -0.00     0.48   0.03  -0.00
     5   6     0.01  -0.01  -0.00    -0.06   0.06   0.00    -0.01  -0.01   0.00
     6   1     0.23  -0.00  -0.00     0.94   0.15  -0.00    -0.17  -0.02  -0.00
     7   8    -0.01  -0.01   0.00    -0.03  -0.07  -0.00     0.03   0.02  -0.00
                     10                     11                     12
                      A                      A                      A
 Frequencies --   1464.7018              1808.6553              2871.2299
 Red. masses --      1.0472                 9.1791                 1.0822
 Frc consts  --      1.3237                17.6913                 5.2565
 IR Inten    --     13.5068               225.1056               156.1844
  Atom  AN      X      Y      Z        X      Y      Z        X      Y      Z
     1   6    -0.00   0.00  -0.05    -0.05  -0.02  -0.00     0.00   0.00   0.00
     2   1    -0.16   0.45   0.05    -0.17  -0.03  -0.09    -0.01  -0.02   0.03
     3   1     0.16  -0.45   0.06    -0.17  -0.03   0.09    -0.01  -0.02  -0.03
     4   1     0.00   0.00   0.72     0.26   0.00  -0.00    -0.00  -0.01   0.00
     5   6    -0.00  -0.00  -0.03     0.59   0.34  -0.00     0.01  -0.08  -0.00
     6   1    -0.00  -0.00   0.09    -0.38   0.21   0.00    -0.08   0.99   0.00
     7   8     0.00   0.00   0.00    -0.38  -0.25   0.00    -0.00  -0.00  -0.00
                     13                     14                     15
                      A                      A                      A
 Frequencies --   3022.4731              3077.7682              3135.0298
 Red. masses --      1.0366                 1.0983                 1.1030
 Frc consts  --      5.5791                 6.1300                 6.3871
 IR Inten    --      1.6950                 9.0353                14.9963
  Atom  AN      X      Y      Z        X      Y      Z        X      Y      Z
     1   6    -0.05  -0.00  -0.00     0.00  -0.00  -0.09    -0.02  -0.09   0.00
     2   1     0.30   0.21  -0.52    -0.36  -0.24   0.56     0.14   0.08  -0.24
     3   1     0.31   0.21   0.52     0.36   0.24   0.56     0.14   0.08   0.24
     4   1    -0.01  -0.42   0.00     0.00   0.00  -0.02     0.01   0.91  -0.00
     5   6     0.00  -0.00  -0.00    -0.00  -0.00  -0.00    -0.00  -0.00   0.00
     6   1    -0.01   0.04   0.00     0.00   0.00   0.00    -0.00   0.03   0.00
     7   8     0.00   0.00  -0.00    -0.00   0.00  -0.00     0.00   0.00  -0.00

 -------------------
 - Thermochemistry -
 -------------------
 Temperature   298.150 Kelvin.  Pressure   1.00000 Atm.
 Atom     1 has atomic number  6 and mass  12.00000
 Atom     2 has atomic number  1 and mass   1.00783
 Atom     3 has atomic number  1 and mass   1.00783
 Atom     4 has atomic number  1 and mass   1.00783
 Atom     5 has atomic number  6 and mass  12.00000
 Atom     6 has atomic number  1 and mass   1.00783
 Atom     7 has atomic number  8 and mass  15.99491
 Molecular mass:    44.02621 amu.
 Principal axes and moments of inertia in atomic units:
                           1         2         3
     Eigenvalues --    31.52358 178.13749 198.54991
           X            0.99967  -0.02550   0.00000
           Y            0.02550   0.99967   0.00001
           Z           -0.00000  -0.00001   1.00000
 This molecule is an asymmetric top.
 Rotational symmetry number  1.
 Rotational temperatures (Kelvin)      2.74759     0.48622     0.43623
 Rotational constants (GHZ):          57.25051    10.13117     9.08961
 Zero-point vibrational energy     144992.8 (Joules/Mol)
                                   34.65411 (Kcal/Mol)
 Warning -- explicit consideration of   2 degrees of freedom as
           vibrations may cause significant error
 Vibrational temperatures:    237.57   732.43  1122.01  1275.51  1620.71
          (Kelvin)           1636.99  1977.24  2052.89  2093.72  2107.38
                             2602.25  4131.06  4348.66  4428.22  4510.61
 
 Zero-point correction=                           0.055225 (Hartree/Particle)
 Thermal correction to Energy=                    0.059105
 Thermal correction to Enthalpy=                  0.060050
 Thermal correction to Gibbs Free Energy=         0.030313
 Sum of electronic and zero-point Energies=           -153.824046
 Sum of electronic and thermal Energies=              -153.820166
 Sum of electronic and thermal Enthalpies=            -153.819222
 Sum of electronic and thermal Free Energies=         -153.848958
 
                     E (Thermal)             CV                S
                      KCal/Mol        Cal/Mol-Kelvin    Cal/Mol-Kelvin
 Total                   37.089             11.197             62.585
 Electronic               0.000              0.000              0.000
 Translational            0.889              2.981             37.273
 Rotational               0.889              2.981             21.638
 Vibrational             35.312              5.235              3.674
 Vibration     1          0.624              1.885              2.490
 Vibration     2          0.864              1.230              0.636
                       Q            Log10(Q)             Ln(Q)
 Total Bot       0.113978D-13        -13.943181        -32.105360
 Total V=0       0.287382D+12         11.458460         26.384079
 Vib (Bot)       0.830467D-25        -25.080677        -57.750394
 Vib (Bot)    1  0.122239D+01          0.087209          0.200806
 Vib (Bot)    2  0.320249D+00         -0.494512         -1.138656
 Vib (V=0)       0.209394D+01          0.320963          0.739045
 Vib (V=0)    1  0.182069D+01          0.260237          0.599218
 Vib (V=0)    2  0.109377D+01          0.038925          0.089628
 Electronic      0.100000D+01          0.000000          0.000000
 Translational   0.114821D+08          7.060021         16.256299
 Rotational      0.119530D+05          4.077476          9.388735
 ***** Axes restored to original set *****
 -------------------------------------------------------------------
 Center     Atomic                   Forces (Hartrees/Bohr)
 Number     Number              X              Y              Z
 -------------------------------------------------------------------
      1        6           0.000049493   -0.000001979    0.000015537
      2        1          -0.000025972    0.000010966   -0.000003773
      3        1          -0.000028481    0.000001572   -0.000006565
      4        1          -0.000012019   -0.000005424   -0.000003559
      5        6          -0.000025347    0.000051463   -0.000029409
      6        1           0.000010560    0.000003245   -0.000016390
      7        8           0.000031765   -0.000059842    0.000044159
 -------------------------------------------------------------------
 Cartesian Forces:  Max     0.000059842 RMS     0.000027285
 FormGI is forming the generalized inverse of G from B-inverse, IUseBI=4.

 GradGradGradGradGradGradGradGradGradGradGradGradGradGradGradGradGradGrad
 Berny optimization.
 Internal  Forces:  Max     0.000078860 RMS     0.000022522
 Search for a local minimum.
 Step number   1 out of a maximum of    2
 All quantities printed in internal units (Hartrees-Bohrs-Radians)
 Second derivative matrix not updated -- analytic derivatives used.
 ITU=  0
     Eigenvalues ---    0.00141   0.04472   0.05333   0.05498   0.10996
     Eigenvalues ---    0.12046   0.12930   0.15612   0.22141   0.28615
     Eigenvalues ---    0.29601   0.33061   0.33721   0.34610   0.86397
 Angle between quadratic step and forces=  66.56 degrees.
 Linear search not attempted -- first point.
 Iteration  1 RMS(Cart)=  0.00029525 RMS(Int)=  0.00000007
 Iteration  2 RMS(Cart)=  0.00000006 RMS(Int)=  0.00000002
 Variable       Old X    -DE/DX   Delta X   Delta X   Delta X     New X
                                 (Linear)    (Quad)   (Total)
    R1        2.06998  -0.00001   0.00000  -0.00005  -0.00005   2.06994
    R2        2.07000  -0.00002   0.00000  -0.00007  -0.00007   2.06994
    R3        2.05943   0.00001   0.00000   0.00005   0.00005   2.05947
    R4        2.84149   0.00000   0.00000   0.00004   0.00004   2.84153
    R5        2.10160   0.00001   0.00000   0.00003   0.00003   2.10164
    R6        2.27994  -0.00008   0.00000  -0.00008  -0.00008   2.27986
    A1        1.86136   0.00001   0.00000   0.00023   0.00023   1.86159
    A2        1.92300  -0.00002   0.00000  -0.00023  -0.00023   1.92277
    A3        1.91134   0.00001   0.00000   0.00009   0.00009   1.91143
    A4        1.92291  -0.00001   0.00000  -0.00014  -0.00014   1.92277
    A5        1.91117   0.00002   0.00000   0.00026   0.00026   1.91144
    A6        1.93270  -0.00001   0.00000  -0.00020  -0.00020   1.93250
    A7        2.00452   0.00003   0.00000   0.00023   0.00023   2.00475
    A8        2.17850  -0.00003   0.00000  -0.00019  -0.00019   2.17831
    A9        2.10017  -0.00000   0.00000  -0.00004  -0.00004   2.10013
    D1       -1.01811  -0.00001   0.00000   0.00023   0.00023  -1.01788
    D2        2.12366  -0.00002   0.00000   0.00006   0.00006   2.12372
    D3        1.01715   0.00001   0.00000   0.00071   0.00071   1.01786
    D4       -2.12427   0.00001   0.00000   0.00054   0.00054  -2.12373
    D5        3.14100   0.00001   0.00000   0.00058   0.00058   3.14159
    D6       -0.00042   0.00000   0.00000   0.00041   0.00041  -0.00001
         Item               Value     Threshold  Converged?
 Maximum Force            0.000079     0.000450     YES
 RMS     Force            0.000023     0.000300     YES
 Maximum Displacement     0.000805     0.001800     YES
 RMS     Displacement     0.000295     0.001200     YES
 Predicted change in Energy=-2.690088D-08
 Optimization completed.
    -- Stationary point found.
                           ----------------------------
                           !   Optimized Parameters   !
                           ! (Angstroms and Degrees)  !
 --------------------------                            --------------------------
 ! Name  Definition              Value          Derivative Info.                !
 --------------------------------------------------------------------------------
 ! R1    R(1,2)                  1.0954         -DE/DX =    0.0                 !
 ! R2    R(1,3)                  1.0954         -DE/DX =    0.0                 !
 ! R3    R(1,4)                  1.0898         -DE/DX =    0.0                 !
 ! R4    R(1,5)                  1.5037         -DE/DX =    0.0                 !
 ! R5    R(5,6)                  1.1121         -DE/DX =    0.0                 !
 ! R6    R(5,7)                  1.2065         -DE/DX =   -0.0001              !
 ! A1    A(2,1,3)              106.6479         -DE/DX =    0.0                 !
 ! A2    A(2,1,4)              110.1798         -DE/DX =    0.0                 !
 ! A3    A(2,1,5)              109.5118         -DE/DX =    0.0                 !
 ! A4    A(3,1,4)              110.1746         -DE/DX =    0.0                 !
 ! A5    A(3,1,5)              109.5021         -DE/DX =    0.0                 !
 ! A6    A(4,1,5)              110.7354         -DE/DX =    0.0                 !
 ! A7    A(1,5,6)              114.8507         -DE/DX =    0.0                 !
 ! A8    A(1,5,7)              124.8187         -DE/DX =    0.0                 !
 ! A9    A(6,5,7)              120.3306         -DE/DX =    0.0                 !
 ! D1    D(2,1,5,6)            -58.3331         -DE/DX =    0.0                 !
 ! D2    D(2,1,5,7)            121.6766         -DE/DX =    0.0                 !
 ! D3    D(3,1,5,6)             58.2785         -DE/DX =    0.0                 !
 ! D4    D(3,1,5,7)           -121.7118         -DE/DX =    0.0                 !
 ! D5    D(4,1,5,6)            179.9662         -DE/DX =    0.0                 !
 ! D6    D(4,1,5,7)             -0.0241         -DE/DX =    0.0                 !
 --------------------------------------------------------------------------------
 GradGradGradGradGradGradGradGradGradGradGradGradGradGradGradGradGradGrad


 ----------------------------------------------------------------------

 Electric dipole moment (input orientation):
 (Debye = 10**-18 statcoulomb cm , SI units = C m)
                  (au)            (Debye)         (10**-30 SI)
   Tot        0.116053D+01      0.294978D+01      0.983940D+01
   x          0.445078D+00      0.113127D+01      0.377352D+01
   y         -0.821174D+00     -0.208722D+01     -0.696220D+01
   z          0.688776D+00      0.175069D+01      0.583969D+01

 Dipole polarizability, Alpha (input orientation).
 (esu units = cm**3 , SI units = C**2 m**2 J**-1)
 Alpha(0;0):
               (au)            (10**-24 esu)      (10**-40 SI)
   iso        0.280034D+02      0.414968D+01      0.461715D+01
   aniso      0.122020D+02      0.180816D+01      0.201184D+01
   xx         0.293579D+02      0.435040D+01      0.484047D+01
   yx        -0.218453D+01     -0.323714D+00     -0.360180D+00
   yy         0.279290D+02      0.413865D+01      0.460487D+01
   zx         0.273893D+00      0.405867D-01      0.451588D-01
   zy        -0.656075D+01     -0.972203D+00     -0.108172D+01
   zz         0.267234D+02      0.396000D+01      0.440609D+01

 ----------------------------------------------------------------------

 Dipole orientation:
     6         -3.85406451         -0.34256132         -2.01130886
     1         -3.59857126         -1.99694460         -0.79369850
     1         -3.68362826          1.32234122         -0.79312696
     1         -5.71455094         -0.38998107         -2.89311361
     6         -1.80774520         -0.28950783         -3.98204820
     1          0.15047552         -0.23842193         -3.22079799
     8         -2.16797110         -0.29884047         -6.23333081

 Electric dipole moment (dipole orientation):
 (Debye = 10**-18 statcoulomb cm , SI units = C m)
                  (au)            (Debye)         (10**-30 SI)
   Tot        0.116053D+01      0.294978D+01      0.983940D+01
   x          0.000000D+00      0.000000D+00      0.000000D+00
   y          0.000000D+00      0.000000D+00      0.000000D+00
   z          0.116053D+01      0.294978D+01      0.983940D+01

 Dipole polarizability, Alpha (dipole orientation).
 (esu units = cm**3 , SI units = C**2 m**2 J**-1)
 Alpha(0;0):
               (au)            (10**-24 esu)      (10**-40 SI)
   iso        0.280034D+02      0.414968D+01      0.461715D+01
   aniso      0.122020D+02      0.180816D+01      0.201184D+01
   xx         0.289199D+02      0.428549D+01      0.476825D+01
   yx         0.217844D+00      0.322812D-01      0.359177D-01
   yy         0.205552D+02      0.304597D+01      0.338910D+01
   zx        -0.303971D+00     -0.450438D-01     -0.501180D-01
   zy        -0.787640D-02     -0.116716D-02     -0.129864D-02
   zz         0.345352D+02      0.511759D+01      0.569409D+01

 ----------------------------------------------------------------------
 Unable to Open any file for archive entry.
 1\1\GINC-LOCALHOST\Freq\RB3LYP\6-311G(d,p)\C2H4O1\KIMARIYB\03-Aug-2023
 \0\\#N Geom=AllCheck Guess=TCheck SCRF=Check GenChk RB3LYP/6-311G(d,p)
  Freq\\Title Card Required\\0,1\C,-2.29029433,0.2814743726,0.022212059
 6\H,-2.0695512362,-0.7518134748,-0.2666909527\H,-1.8111675983,0.444911
 2501,0.9936155194\H,-3.3671805829,0.4267849208,0.1050881765\C,-1.70255
 01115,1.2230544544,-0.9921587922\H,-0.6028544229,1.1330220221,-1.13135
 91322\O,-2.3333079074,2.0301697258,-1.6296007773\\Version=ES64L-G16Rev
 C.01\State=1-A\HF=-153.8792712\RMSD=2.057e-09\RMSF=2.728e-05\ZeroPoint
 =0.0552248\Thermal=0.0591054\ETot=-153.8201658\HTot=-153.8192217\GTot=
 -153.8489578\Dipole=0.4450775,-0.8211739,0.6887764\DipoleDeriv=-0.0252
 289,-0.1137352,0.129087,-0.079474,-0.1838624,0.2649301,0.0965707,0.271
 8928,-0.1999196,0.0754832,0.0301527,0.0653435,0.0296958,-0.0526724,-0.
 0311363,0.0290721,-0.0710632,0.0723413,0.035302,-0.0603899,-0.0674022,
 -0.0333816,0.0966032,-0.0470138,-0.0563218,-0.001621,-0.0369089,-0.097
 063,-0.0007814,0.0388643,0.0494029,0.0658991,0.0117483,-0.0087607,0.02
 20608,0.0698118,1.0032072,-0.0980242,-0.0830493,-0.1725633,0.829713,-0
 .6184494,-0.0123275,-0.6336608,0.745595,-0.32583,0.0080098,0.0717114,0
 .013991,0.0203241,0.036873,0.06595,0.0380907,0.0124778,-0.6658706,0.23
 47682,-0.1545547,0.1923293,-0.7760048,0.3830481,-0.1141829,0.3743007,-
 0.6633974\Polar=29.3579294,-2.184529,27.9290245,0.2738928,-6.5607477,2
 6.7233949\Quadrupole=0.7524586,-0.5213002,-0.2311584,0.4172858,-0.3843
 182,1.1801809\PG=C01 [X(C2H4O1)]\NImag=0\\0.58357435,-0.03476200,0.496
 48098,0.01781298,0.01947912,0.48730007,-0.05787935,0.04693477,0.017733
 52,0.05532136,0.04859326,-0.27677616,-0.06772470,-0.05371476,0.3010709
 2,0.01758859,-0.06355192,-0.05572250,-0.01672961,0.07121179,0.06374523
 ,-0.09755441,-0.01931206,-0.09784534,0.00194637,0.00086492,0.00552303,
 0.09892201,-0.01824451,-0.04217272,-0.03284580,-0.01319362,-0.00436999
 ,-0.02855260,0.02009546,0.04960689,-0.10028062,-0.03645426,-0.25063855
 ,-0.00344410,-0.00151436,-0.00747179,0.11089093,0.03748098,0.27160585,
 -0.31210397,0.03609166,0.01987180,-0.00296083,-0.00005052,0.00000543,-
 0.01015505,0.00152612,0.00185020,0.33690858,0.03921750,-0.05351009,-0.
 00290250,0.02927024,-0.00154366,-0.00113098,-0.00538824,-0.00050750,0.
 00081698,-0.03944009,0.05213611,0.01690755,-0.00226179,-0.04942136,0.0
 0812073,-0.00035465,-0.00173170,-0.02754029,0.00463420,0.00442370,-0.0
 2235242,0.00157788,0.04836301,-0.12838819,-0.03479833,0.04172210,0.002
 95068,0.00801562,-0.00812823,0.00688718,0.01350058,-0.01378887,-0.0161
 6850,-0.02471565,0.02657038,0.67617159,-0.03574360,-0.11462276,0.03446
 551,-0.01090594,-0.01975111,0.02425630,0.00673101,0.00286924,-0.004886
 33,0.00358916,0.00374705,-0.00525608,-0.19459278,0.56485835,0.04259900
 ,0.03425515,-0.12729849,-0.00847156,-0.00682097,0.00763895,0.01095816,
 0.02093208,-0.01892884,-0.00030405,0.00054939,-0.00146460,0.08989451,-
 0.29529629,0.47401957,-0.01028107,0.00292362,0.00279295,-0.00016643,-0
 .00080442,0.00006994,-0.00042671,-0.00069383,0.00153700,0.00015682,-0.
 00123663,0.00165179,-0.24864695,-0.00662647,0.04424606,0.28703942,-0.0
 1745754,0.01097362,0.00927641,0.00173038,0.00177307,-0.00238054,-0.000
 12686,-0.00068819,0.00130805,-0.00160270,-0.00149775,0.00411838,-0.001
 19556,-0.06030789,-0.00222468,-0.01999512,0.04815823,0.02214953,0.0051
 1303,0.00759539,0.00042916,0.00162919,-0.00086851,-0.00176425,-0.00206
 576,0.00185913,0.00200139,0.00404269,-0.00175258,0.03907790,-0.0011183
 4,-0.06983334,-0.03506293,-0.02024362,0.04892828,0.02263263,0.00292235
 ,-0.00208801,0.00078820,-0.00290410,0.00167085,0.00038060,-0.00299020,
 0.00323547,0.00432293,0.00229288,-0.00335774,-0.29280582,0.23754862,-0
 .17892212,-0.02767507,0.03864740,-0.02683080,0.29235653,0.01839689,-0.
 02037287,0.04025196,-0.00012107,-0.00040308,0.00014794,-0.00286423,-0.
 00473773,0.00324892,-0.00011362,0.00117583,-0.00245794,0.23378611,-0.3
 7679288,0.24860532,0.02643285,0.00158890,0.01264281,-0.27551693,0.3995
 4184,-0.01677703,0.04342067,-0.01181457,0.00236186,0.00357370,-0.00558
 969,-0.00022223,0.00041689,-0.00084950,-0.00107233,-0.00295347,0.00158
 354,-0.17534778,0.24783523,-0.26413325,-0.01523482,0.01014600,0.014071
 62,0.20629234,-0.30243902,0.26673185\\-0.00004949,0.00000198,-0.000015
 54,0.00002597,-0.00001097,0.00000377,0.00002848,-0.00000157,0.00000656
 ,0.00001202,0.00000542,0.00000356,0.00002535,-0.00005146,0.00002941,-0
 .00001056,-0.00000324,0.00001639,-0.00003176,0.00005984,-0.00004416\\\
 @
 The archive entry for this job was punched.


 NEVER TEACH A PIG TO SING.
 IT WASTES YOUR TIME AND ANNOYS THE PIG.
     -- SEEN ON A GREETING CARD
 Job cpu time:       0 days  0 hours  1 minutes 33.2 seconds.
 Elapsed time:       0 days  0 hours  0 minutes  9.6 seconds.
 File lengths (MBytes):  RWF=     18 Int=      0 D2E=      0 Chk=      4 Scr=      1
 Normal termination of Gaussian 16 at Thu Aug  3 16:00:50 2023.
