 Entering Gaussian System, Link 0=g16
 Initial command:
 /kimariyb/g16/l1.exe "/kimariyb/g16/scratch/Gau-43975.inp" -scrdir="/kimariyb/g16/scratch/"
 Default is to use a total of  10 processors:
                               10 via shared-memory
                                1 via Linda
 Entering Link 1 = /kimariyb/g16/l1.exe PID=     43976.
  
 Copyright (c) 1988-2019, Gaussian, Inc.  All Rights Reserved.
  
 This is part of the Gaussian(R) 16 program.  It is based on
 the Gaussian(R) 09 system (copyright 2009, Gaussian, Inc.),
 the Gaussian(R) 03 system (copyright 2003, Gaussian, Inc.),
 the Gaussian(R) 98 system (copyright 1998, Gaussian, Inc.),
 the Gaussian(R) 94 system (copyright 1995, Gaussian, Inc.),
 the Gaussian 92(TM) system (copyright 1992, Gaussian, Inc.),
 the Gaussian 90(TM) system (copyright 1990, Gaussian, Inc.),
 the Gaussian 88(TM) system (copyright 1988, Gaussian, Inc.),
 the Gaussian 86(TM) system (copyright 1986, Carnegie Mellon
 University), and the Gaussian 82(TM) system (copyright 1983,
 Carnegie Mellon University). Gaussian is a federally registered
 trademark of Gaussian, Inc.
  
 This software contains proprietary and confidential information,
 including trade secrets, belonging to Gaussian, Inc.
  
 This software is provided under written license and may be
 used, copied, transmitted, or stored only in accord with that
 written license.
  
 The following legend is applicable only to US Government
 contracts under FAR:
  
                    RESTRICTED RIGHTS LEGEND
  
 Use, reproduction and disclosure by the US Government is
 subject to restrictions as set forth in subparagraphs (a)
 and (c) of the Commercial Computer Software - Restricted
 Rights clause in FAR 52.227-19.
  
 Gaussian, Inc.
 340 Quinnipiac St., Bldg. 40, Wallingford CT 06492
  
  
 ---------------------------------------------------------------
 Warning -- This program may not be used in any manner that
 competes with the business of Gaussian, Inc. or will provide
 assistance to any competitor of Gaussian, Inc.  The licensee
 of this program is prohibited from giving any competitor of
 Gaussian, Inc. access to this program.  By using this program,
 the user acknowledges that Gaussian, Inc. is engaged in the
 business of creating and licensing software in the field of
 computational chemistry and represents and warrants to the
 licensee that it is not a competitor of Gaussian, Inc. and that
 it will not use this program in any manner prohibited above.
 ---------------------------------------------------------------
  

 Cite this work as:
 Gaussian 16, Revision C.01,
 M. J. Frisch, G. W. Trucks, H. B. Schlegel, G. E. Scuseria, 
 M. A. Robb, J. R. Cheeseman, G. Scalmani, V. Barone, 
 G. A. Petersson, H. Nakatsuji, X. Li, M. Caricato, A. V. Marenich, 
 J. Bloino, B. G. Janesko, R. Gomperts, B. Mennucci, H. P. Hratchian, 
 J. V. Ortiz, A. F. Izmaylov, J. L. Sonnenberg, D. Williams-Young, 
 F. Ding, F. Lipparini, F. Egidi, J. Goings, B. Peng, A. Petrone, 
 T. Henderson, D. Ranasinghe, V. G. Zakrzewski, J. Gao, N. Rega, 
 G. Zheng, W. Liang, M. Hada, M. Ehara, K. Toyota, R. Fukuda, 
 J. Hasegawa, M. Ishida, T. Nakajima, Y. Honda, O. Kitao, H. Nakai, 
 T. Vreven, K. Throssell, J. A. Montgomery, Jr., J. E. Peralta, 
 F. Ogliaro, M. J. Bearpark, J. J. Heyd, E. N. Brothers, K. N. Kudin, 
 V. N. Staroverov, T. A. Keith, R. Kobayashi, J. Normand, 
 K. Raghavachari, A. P. Rendell, J. C. Burant, S. S. Iyengar, 
 J. Tomasi, M. Cossi, J. M. Millam, M. Klene, C. Adamo, R. Cammi, 
 J. W. Ochterski, R. L. Martin, K. Morokuma, O. Farkas, 
 J. B. Foresman, and D. J. Fox, Gaussian, Inc., Wallingford CT, 2019.
 
 ******************************************
 Gaussian 16:  ES64L-G16RevC.01  3-Jul-2019
                 3-Aug-2023 
 ******************************************
 --------------------------------------------
 # opt freq b3lyp/6-311g** scrf(solvent=CCl4)
 --------------------------------------------
 1/18=20,19=15,26=3,38=1/1,3;
 2/9=110,12=2,17=6,18=5,40=1/2;
 3/5=4,6=6,7=101,11=2,25=1,30=1,70=2201,71=1,72=11,74=-5/1,2,3;
 4//1;
 5/5=2,38=5,53=11/2;
 6/7=2,8=2,9=2,10=2,28=1/1;
 7//1,2,3,16;
 1/18=20,19=15,26=3/3(2);
 2/9=110/2;
 99//99;
 2/9=110/2;
 3/5=4,6=6,7=101,11=2,25=1,30=1,70=2205,71=1,72=11,74=-5/1,2,3;
 4/5=5,16=3,69=1/1;
 5/5=2,38=5,53=11/2;
 7//1,2,3,16;
 1/18=20,19=15,26=3/3(-5);
 2/9=110/2;
 6/7=2,8=2,9=2,10=2,19=2,28=1/1;
 99/9=1/99;
 -------------------
 Title Card Required
 -------------------
 Symbolic Z-matrix:
 Charge =  0 Multiplicity = 1
 C                    -2.20277   0.37418   0.08981 
 H                    -1.76064  -0.60009   0.10437 
 H                    -1.92534   0.90504   0.97645 
 H                    -3.26796   0.28188   0.04794 
 C                    -1.70531   1.14521  -1.14698 
 O                    -2.54267   2.12829  -1.7612 
 N                    -0.36967   0.87061  -1.69614 
 C                     0.61495   1.75372  -1.05463 
 H                     1.58714   1.55384  -1.45436 
 H                     0.35478   2.77436  -1.24304 
 H                     0.61963   1.57576   0.00045 
 H                    -0.12652  -0.08326  -1.52006 
 

 GradGradGradGradGradGradGradGradGradGradGradGradGradGradGradGradGradGrad
 Berny optimization.
 Initialization pass.
                           ----------------------------
                           !    Initial Parameters    !
                           ! (Angstroms and Degrees)  !
 --------------------------                            --------------------------
 ! Name  Definition              Value          Derivative Info.                !
 --------------------------------------------------------------------------------
 ! R1    R(1,2)                  1.07           estimate D2E/DX2                !
 ! R2    R(1,3)                  1.07           estimate D2E/DX2                !
 ! R3    R(1,4)                  1.07           estimate D2E/DX2                !
 ! R4    R(1,5)                  1.54           estimate D2E/DX2                !
 ! R5    R(5,6)                  1.43           estimate D2E/DX2                !
 ! R6    R(5,7)                  1.47           estimate D2E/DX2                !
 ! R7    R(7,8)                  1.47           estimate D2E/DX2                !
 ! R8    R(7,12)                 1.0            estimate D2E/DX2                !
 ! R9    R(8,9)                  1.07           estimate D2E/DX2                !
 ! R10   R(8,10)                 1.07           estimate D2E/DX2                !
 ! R11   R(8,11)                 1.07           estimate D2E/DX2                !
 ! A1    A(2,1,3)              109.4712         estimate D2E/DX2                !
 ! A2    A(2,1,4)              109.4712         estimate D2E/DX2                !
 ! A3    A(2,1,5)              109.4712         estimate D2E/DX2                !
 ! A4    A(3,1,4)              109.4712         estimate D2E/DX2                !
 ! A5    A(3,1,5)              109.4712         estimate D2E/DX2                !
 ! A6    A(4,1,5)              109.4712         estimate D2E/DX2                !
 ! A7    A(1,5,6)              120.0            estimate D2E/DX2                !
 ! A8    A(1,5,7)              120.0            estimate D2E/DX2                !
 ! A9    A(6,5,7)              120.0            estimate D2E/DX2                !
 ! A10   A(5,7,8)              109.4712         estimate D2E/DX2                !
 ! A11   A(5,7,12)             109.4712         estimate D2E/DX2                !
 ! A12   A(8,7,12)             109.4712         estimate D2E/DX2                !
 ! A13   A(7,8,9)              109.4712         estimate D2E/DX2                !
 ! A14   A(7,8,10)             109.4712         estimate D2E/DX2                !
 ! A15   A(7,8,11)             109.4712         estimate D2E/DX2                !
 ! A16   A(9,8,10)             109.4712         estimate D2E/DX2                !
 ! A17   A(9,8,11)             109.4712         estimate D2E/DX2                !
 ! A18   A(10,8,11)            109.4712         estimate D2E/DX2                !
 ! D1    D(2,1,5,6)            150.0            estimate D2E/DX2                !
 ! D2    D(2,1,5,7)            -30.0            estimate D2E/DX2                !
 ! D3    D(3,1,5,6)            -90.0            estimate D2E/DX2                !
 ! D4    D(3,1,5,7)             90.0            estimate D2E/DX2                !
 ! D5    D(4,1,5,6)             30.0            estimate D2E/DX2                !
 ! D6    D(4,1,5,7)           -150.0            estimate D2E/DX2                !
 ! D7    D(1,5,7,8)            -90.0            estimate D2E/DX2                !
 ! D8    D(1,5,7,12)            30.0            estimate D2E/DX2                !
 ! D9    D(6,5,7,8)             90.0            estimate D2E/DX2                !
 ! D10   D(6,5,7,12)          -150.0            estimate D2E/DX2                !
 ! D11   D(5,7,8,9)           -180.0            estimate D2E/DX2                !
 ! D12   D(5,7,8,10)           -60.0            estimate D2E/DX2                !
 ! D13   D(5,7,8,11)            60.0            estimate D2E/DX2                !
 ! D14   D(12,7,8,9)            60.0            estimate D2E/DX2                !
 ! D15   D(12,7,8,10)          180.0            estimate D2E/DX2                !
 ! D16   D(12,7,8,11)          -60.0            estimate D2E/DX2                !
 --------------------------------------------------------------------------------
 Trust Radius=3.00D-01 FncErr=1.00D-07 GrdErr=1.00D-06 EigMax=2.50D+02 EigMin=1.00D-04
 Number of steps in this run=     55 maximum allowed number of steps=    100.
 GradGradGradGradGradGradGradGradGradGradGradGradGradGradGradGradGradGrad

                          Input orientation:                          
 ---------------------------------------------------------------------
 Center     Atomic      Atomic             Coordinates (Angstroms)
 Number     Number       Type             X           Y           Z
 ---------------------------------------------------------------------
      1          6           0       -2.202766    0.374180    0.089810
      2          1           0       -1.760637   -0.600094    0.104374
      3          1           0       -1.925345    0.905040    0.976447
      4          1           0       -3.267955    0.281878    0.047935
      5          6           0       -1.705307    1.145210   -1.146979
      6          8           0       -2.542668    2.128294   -1.761203
      7          7           0       -0.369674    0.870612   -1.696144
      8          6           0        0.614950    1.753719   -1.054632
      9          1           0        1.587145    1.553841   -1.454364
     10          1           0        0.354775    2.774362   -1.243037
     11          1           0        0.619629    1.575760    0.000455
     12          1           0       -0.126521   -0.083261   -1.520065
 ---------------------------------------------------------------------
                    Distance matrix (angstroms):
                    1          2          3          4          5
     1  C    0.000000
     2  H    1.070000   0.000000
     3  H    1.070000   1.747303   0.000000
     4  H    1.070000   1.747303   1.747303   0.000000
     5  C    1.540000   2.148263   2.148263   2.148263   0.000000
     6  O    2.572683   3.396477   3.061399   2.684824   1.430000
     7  N    2.606971   2.709173   3.092577   3.433431   1.470000
     8  C    3.339521   3.539371   3.361344   4.296385   2.400500
     9  H    4.259049   4.275131   4.320575   5.238968   3.331921
    10  H    3.752116   4.204455   3.690450   4.582932   2.628174
    11  H    3.068826   3.226578   2.807012   4.097523   2.628174
    12  H    2.666785   2.361410   3.231884   3.529952   2.034920
                    6          7          8          9         10
     6  O    0.000000
     7  N    2.511553   0.000000
     8  C    3.257315   1.470000   0.000000
     9  H    4.180849   2.086720   1.070000   0.000000
    10  H    3.013483   2.086720   1.070000   1.747303   0.000000
    11  H    3.661810   2.086720   1.070000   1.747303   1.747303
    12  H    3.284340   1.000000   2.034920   2.370879   2.911082
                   11         12
    11  H    0.000000
    12  H    2.370879   0.000000
 Stoichiometry    C3H7NO
 Framework group  C1[X(C3H7NO)]
 Deg. of freedom    30
 Full point group                 C1      NOp   1
 Largest Abelian subgroup         C1      NOp   1
 Largest concise Abelian subgroup C1      NOp   1
                         Standard orientation:                         
 ---------------------------------------------------------------------
 Center     Atomic      Atomic             Coordinates (Angstroms)
 Number     Number       Type             X           Y           Z
 ---------------------------------------------------------------------
      1          6           0        1.347172   -1.104423   -0.159521
      2          1           0        1.077436   -1.890581    0.514346
      3          1           0        1.167368   -1.420001   -1.165991
      4          1           0        2.384470   -0.871351   -0.038732
      5          6           0        0.501241    0.145803    0.145332
      6          8           0        1.034860    1.448654   -0.105129
      7          7           0       -0.854783   -0.000094    0.693794
      8          6           0       -1.822972   -0.084477   -0.409106
      9          1           0       -2.810011   -0.190674   -0.009885
     10          1           0       -1.770670    0.806956   -0.998608
     11          1           0       -1.592973   -0.931135   -1.021618
     12          1           0       -0.903665   -0.833209    1.244730
 ---------------------------------------------------------------------
 Rotational constants (GHZ):           7.0964802           3.8953096           2.9455363
 Standard basis: 6-311G(d,p) (5D, 7F)
 There are   137 symmetry adapted cartesian basis functions of A   symmetry.
 There are   132 symmetry adapted basis functions of A   symmetry.
   132 basis functions,   216 primitive gaussians,   137 cartesian basis functions
    20 alpha electrons       20 beta electrons
       nuclear repulsion energy       173.0718673346 Hartrees.
 NAtoms=   12 NActive=   12 NUniq=   12 SFac= 1.00D+00 NAtFMM=   60 NAOKFM=F Big=F
 Integral buffers will be    131072 words long.
 Raffenetti 2 integral format.
 Two-electron integral symmetry is turned on.
 ------------------------------------------------------------------------------
 Polarizable Continuum Model (PCM)
 =================================
 Model                : PCM.
 Atomic radii         : UFF (Universal Force Field).
 Polarization charges : Total charges.
 Charge compensation  : None.
 Solution method      : On-the-fly selection.
 Cavity type          : Scaled VdW (van der Waals Surface) (Alpha=1.100).
 Cavity algorithm     : GePol (No added spheres)
                        Default sphere list used, NSphG=   12.
                        Lebedev-Laikov grids with approx.  5.0 points / Ang**2.
                        Smoothing algorithm: York/Karplus (Gamma=1.0000).
                        Polarization charges: spherical gaussians, with
                                              point-specific exponents (IZeta= 3).
                        Self-potential: point-specific (ISelfS= 7).
                        Self-field    : sphere-specific E.n sum rule (ISelfD= 2).
 1st derivatives      : Analytical E(r).r(x)/FMM algorithm (CHGder, D1EAlg=3).
                        Cavity 1st derivative terms included.
 Solvent              : CarbonTetraChloride, Eps=   2.228000 Eps(inf)=   2.131892
 ------------------------------------------------------------------------------
 Spheres list:
 ISph  on   Nord     Re0    Alpha      Xe            Ye            Ze
    1   C      1    1.9255  1.100      1.347172     -1.104423     -0.159521
    2   H      2    1.4430  1.100      1.077436     -1.890581      0.514346
    3   H      3    1.4430  1.100      1.167368     -1.420001     -1.165991
    4   H      4    1.4430  1.100      2.384470     -0.871351     -0.038732
    5   C      5    1.9255  1.100      0.501241      0.145803      0.145332
    6   O      6    1.7500  1.100      1.034860      1.448654     -0.105129
    7   N      7    1.8300  1.100     -0.854783     -0.000094      0.693794
    8   C      8    1.9255  1.100     -1.822972     -0.084477     -0.409106
    9   H      9    1.4430  1.100     -2.810011     -0.190674     -0.009885
   10   H     10    1.4430  1.100     -1.770670      0.806956     -0.998608
   11   H     11    1.4430  1.100     -1.592973     -0.931135     -1.021618
   12   H     12    1.4430  1.100     -0.903665     -0.833209      1.244730
 ------------------------------------------------------------------------------
 One-electron integrals computed using PRISM.
 NBasis=   132 RedAO= T EigKep=  3.20D-03  NBF=   132
 NBsUse=   132 1.00D-06 EigRej= -1.00D+00 NBFU=   132
 ExpMin= 1.03D-01 ExpMax= 8.59D+03 ExpMxC= 1.30D+03 IAcc=3 IRadAn=         5 AccDes= 0.00D+00
 Harris functional with IExCor=  402 and IRadAn=       5 diagonalized for initial guess.
 HarFok:  IExCor=  402 AccDes= 0.00D+00 IRadAn=         5 IDoV= 1 UseB2=F ITyADJ=14
 ICtDFT=  3500011 ScaDFX=  1.000000  1.000000  1.000000  1.000000
 FoFCou: FMM=F IPFlag=           0 FMFlag=      100000 FMFlg1=           0
         NFxFlg=           0 DoJE=T BraDBF=F KetDBF=T FulRan=T
         wScrn=  0.000000 ICntrl=       500 IOpCl=  0 I1Cent=   200000004 NGrid=           0
         NMat0=    1 NMatS0=      1 NMatT0=    0 NMatD0=    1 NMtDS0=    0 NMtDT0=    0
 Petite list used in FoFCou.
 Keep R1 ints in memory in canonical form, NReq=48172502.
 Requested convergence on RMS density matrix=1.00D-08 within 128 cycles.
 Requested convergence on MAX density matrix=1.00D-06.
 Requested convergence on             energy=1.00D-06.
 No special actions if energy rises.
 Inv3:  Mode=1 IEnd=     3377163.
 Iteration    1 A*A^-1 deviation from unit magnitude is 4.88D-15 for   1045.
 Iteration    1 A*A^-1 deviation from orthogonality  is 1.64D-15 for   1060    828.
 Iteration    1 A^-1*A deviation from unit magnitude is 4.66D-15 for   1045.
 Iteration    1 A^-1*A deviation from orthogonality  is 1.80D-15 for   1047    739.
 EnCoef did     1 forward-backward iterations
 Error on total polarization charges =  0.00528
 SCF Done:  E(RB3LYP) =  -248.520748699     A.U. after   12 cycles
            NFock= 12  Conv=0.90D-08     -V/T= 2.0053

 **********************************************************************

            Population analysis using the SCF Density.

 **********************************************************************

 Orbital symmetries:
       Occupied  (A) (A) (A) (A) (A) (A) (A) (A) (A) (A) (A) (A)
                 (A) (A) (A) (A) (A) (A) (A) (A)
       Virtual   (A) (A) (A) (A) (A) (A) (A) (A) (A) (A) (A) (A)
                 (A) (A) (A) (A) (A) (A) (A) (A) (A) (A) (A) (A)
                 (A) (A) (A) (A) (A) (A) (A) (A) (A) (A) (A) (A)
                 (A) (A) (A) (A) (A) (A) (A) (A) (A) (A) (A) (A)
                 (A) (A) (A) (A) (A) (A) (A) (A) (A) (A) (A) (A)
                 (A) (A) (A) (A) (A) (A) (A) (A) (A) (A) (A) (A)
                 (A) (A) (A) (A) (A) (A) (A) (A) (A) (A) (A) (A)
                 (A) (A) (A) (A) (A) (A) (A) (A) (A) (A) (A) (A)
                 (A) (A) (A) (A) (A) (A) (A) (A) (A) (A) (A) (A)
                 (A) (A) (A) (A)
 The electronic state is 1-A.
 Alpha  occ. eigenvalues --  -19.10754 -14.33232 -10.31001 -10.20043 -10.18868
 Alpha  occ. eigenvalues --   -0.96405  -0.90651  -0.75979  -0.69435  -0.58065
 Alpha  occ. eigenvalues --   -0.50132  -0.46828  -0.46204  -0.43224  -0.42747
 Alpha  occ. eigenvalues --   -0.40934  -0.38243  -0.31562  -0.26127  -0.25729
 Alpha virt. eigenvalues --   -0.06439   0.02746   0.06899   0.07720   0.10951
 Alpha virt. eigenvalues --    0.11449   0.11983   0.12434   0.15901   0.18612
 Alpha virt. eigenvalues --    0.21291   0.26969   0.29597   0.30714   0.31370
 Alpha virt. eigenvalues --    0.33727   0.39731   0.42776   0.44995   0.47735
 Alpha virt. eigenvalues --    0.49534   0.54152   0.55878   0.56550   0.57105
 Alpha virt. eigenvalues --    0.57951   0.58501   0.61620   0.65091   0.69165
 Alpha virt. eigenvalues --    0.73159   0.75676   0.80534   0.83930   0.86871
 Alpha virt. eigenvalues --    0.89380   0.97513   1.00474   1.04100   1.12157
 Alpha virt. eigenvalues --    1.21855   1.25306   1.28408   1.38489   1.41710
 Alpha virt. eigenvalues --    1.43837   1.44477   1.46091   1.47279   1.49011
 Alpha virt. eigenvalues --    1.49602   1.51803   1.52868   1.56004   1.64385
 Alpha virt. eigenvalues --    1.65667   1.69092   1.73504   1.75951   1.79517
 Alpha virt. eigenvalues --    1.82791   1.86693   1.91544   2.00252   2.02848
 Alpha virt. eigenvalues --    2.05634   2.13929   2.19931   2.24808   2.31096
 Alpha virt. eigenvalues --    2.35469   2.37495   2.42216   2.43339   2.46769
 Alpha virt. eigenvalues --    2.47581   2.50127   2.52475   2.54075   2.56399
 Alpha virt. eigenvalues --    2.61038   2.62959   2.64749   2.69282   2.75735
 Alpha virt. eigenvalues --    2.81649   2.86527   2.88015   2.89789   2.95246
 Alpha virt. eigenvalues --    3.05408   3.12533   3.12807   3.25310   3.39673
 Alpha virt. eigenvalues --    3.65660   3.79776   3.81721   3.82631   3.84081
 Alpha virt. eigenvalues --    4.00885   4.06991   4.72426   4.78882   4.85308
 Alpha virt. eigenvalues --    4.93445   5.34235  23.49018  23.92432  23.92924
 Alpha virt. eigenvalues --   35.50614  49.85174
          Condensed to atoms (all electrons):
               1          2          3          4          5          6
     1  C    4.996546   0.375798   0.392104   0.381021   0.275269  -0.074093
     2  H    0.375798   0.565194  -0.021835  -0.021219  -0.027199   0.003337
     3  H    0.392104  -0.021835   0.510130  -0.014430  -0.020647   0.000164
     4  H    0.381021  -0.021219  -0.014430   0.513904  -0.023978   0.008291
     5  C    0.275269  -0.027199  -0.020647  -0.023978   4.844938   0.513694
     6  O   -0.074093   0.003337   0.000164   0.008291   0.513694   8.025041
     7  N   -0.085019   0.002654   0.000287   0.006751   0.313536  -0.056173
     8  C    0.001995  -0.000419   0.000129  -0.000004  -0.082141  -0.004976
     9  H   -0.000733   0.000050   0.000053   0.000038   0.006697  -0.000163
    10  H    0.000775  -0.000067  -0.000384  -0.000082   0.003969   0.007993
    11  H    0.005503  -0.000669   0.001522  -0.000518  -0.011698  -0.000377
    12  H   -0.001788   0.003592  -0.000165  -0.000491  -0.028731   0.002592
               7          8          9         10         11         12
     1  C   -0.085019   0.001995  -0.000733   0.000775   0.005503  -0.001788
     2  H    0.002654  -0.000419   0.000050  -0.000067  -0.000669   0.003592
     3  H    0.000287   0.000129   0.000053  -0.000384   0.001522  -0.000165
     4  H    0.006751  -0.000004   0.000038  -0.000082  -0.000518  -0.000491
     5  C    0.313536  -0.082141   0.006697   0.003969  -0.011698  -0.028731
     6  O   -0.056173  -0.004976  -0.000163   0.007993  -0.000377   0.002592
     7  N    6.622267   0.313625  -0.023313  -0.037592  -0.052020   0.346669
     8  C    0.313625   4.795322   0.406041   0.397390   0.414207  -0.039319
     9  H   -0.023313   0.406041   0.540576  -0.019648  -0.034742  -0.006982
    10  H   -0.037592   0.397390  -0.019648   0.536606  -0.037212   0.009436
    11  H   -0.052020   0.414207  -0.034742  -0.037212   0.614759  -0.006251
    12  H    0.346669  -0.039319  -0.006982   0.009436  -0.006251   0.514505
 Mulliken charges:
               1
     1  C   -0.267378
     2  H    0.120783
     3  H    0.153073
     4  H    0.150717
     5  C    0.236291
     6  O   -0.425330
     7  N   -0.351672
     8  C   -0.201851
     9  H    0.132127
    10  H    0.138815
    11  H    0.107494
    12  H    0.206932
 Sum of Mulliken charges =  -0.00000
 Mulliken charges with hydrogens summed into heavy atoms:
               1
     1  C    0.157195
     5  C    0.236291
     6  O   -0.425330
     7  N   -0.144741
     8  C    0.176585
 Electronic spatial extent (au):  <R**2>=            468.0650
 Charge=              0.0000 electrons
 Dipole moment (field-independent basis, Debye):
    X=             -1.7183    Y=             -5.0189    Z=             -0.2396  Tot=              5.3103
 Quadrupole moment (field-independent basis, Debye-Ang):
   XX=            -29.2549   YY=            -34.5689   ZZ=            -30.4374
   XY=             -3.0677   XZ=              0.9279   YZ=             -1.4494
 Traceless Quadrupole moment (field-independent basis, Debye-Ang):
   XX=              2.1655   YY=             -3.1485   ZZ=              0.9830
   XY=             -3.0677   XZ=              0.9279   YZ=             -1.4494
 Octapole moment (field-independent basis, Debye-Ang**2):
  XXX=             -4.6395  YYY=             -6.4103  ZZZ=              0.2685  XYY=             -3.9850
  XXY=             -5.1916  XXZ=              0.2534  XZZ=              0.4631  YZZ=             -2.5675
  YYZ=              0.8537  XYZ=              3.2029
 Hexadecapole moment (field-independent basis, Debye-Ang**3):
 XXXX=           -327.6706 YYYY=           -185.2454 ZZZZ=            -72.7920 XXXY=             -0.8974
 XXXZ=             -1.3026 YYYX=             -2.2837 YYYZ=             -3.3302 ZZZX=             -2.0811
 ZZZY=             -3.6024 XXYY=            -92.8701 XXZZ=            -71.4806 YYZZ=            -38.4553
 XXYZ=             -2.0366 YYXZ=              0.0310 ZZXY=              2.3437
 N-N= 1.730718673346D+02 E-N=-9.265389254153D+02  KE= 2.472085177629D+02
 D1PCM: PCM CHGder 1st derivatives, ID1Alg=3 FixD1E=F DoIter=F DoCFld=F I1PDM=0.
 Calling FoFJK, ICntrl=      2127 FMM=F ISym2X=0 I1Cent= 0 IOpClX= 0 NMat=1 NMatS=1 NMatT=0.
 ***** Axes restored to original set *****
 -------------------------------------------------------------------
 Center     Atomic                   Forces (Hartrees/Bohr)
 Number     Number              X              Y              Z
 -------------------------------------------------------------------
      1        6           0.006088674    0.011202652   -0.037773725
      2        1           0.007028286   -0.014014420    0.003047383
      3        1           0.005506123    0.008537850    0.012564328
      4        1          -0.013152945    0.001316269    0.000413026
      5        6          -0.073999747    0.091766498   -0.074896177
      6        8           0.105884977   -0.115144711    0.076841187
      7        7          -0.049735775    0.021888671    0.010619324
      8        6          -0.005339239   -0.004765674   -0.007015667
      9        1           0.012672400   -0.002009936   -0.006095617
     10        1          -0.002645237    0.012700908   -0.003382409
     11        1           0.005813763    0.001823918    0.018914962
     12        1           0.001878721   -0.013302024    0.006763384
 -------------------------------------------------------------------
 Cartesian Forces:  Max     0.115144711 RMS     0.039556608

 GradGradGradGradGradGradGradGradGradGradGradGradGradGradGradGradGradGrad
 Berny optimization.
 FormGI is forming the generalized inverse of G from B-inverse, IUseBI=4.
 Internal  Forces:  Max     0.174164437 RMS     0.028040456
 Search for a local minimum.
 Step number   1 out of a maximum of   55
 All quantities printed in internal units (Hartrees-Bohrs-Radians)
 Mixed Optimization -- RFO/linear search
 Second derivative matrix not updated -- first step.
 ITU=  0
     Eigenvalues ---    0.00237   0.00448   0.00766   0.00766   0.03399
     Eigenvalues ---    0.07243   0.07243   0.07537   0.07537   0.11287
     Eigenvalues ---    0.16000   0.16000   0.16000   0.16000   0.16000
     Eigenvalues ---    0.16000   0.23464   0.25000   0.25000   0.28519
     Eigenvalues ---    0.35740   0.35740   0.37230   0.37230   0.37230
     Eigenvalues ---    0.37230   0.37230   0.37230   0.40989   0.47688
 RFO step:  Lambda=-7.65571249D-02 EMin= 2.36824119D-03
 Linear search not attempted -- first point.
 Maximum step size (   0.300) exceeded in Quadratic search.
    -- Step size scaled by   0.750
 Iteration  1 RMS(Cart)=  0.06494616 RMS(Int)=  0.01080838
 Iteration  2 RMS(Cart)=  0.01031017 RMS(Int)=  0.00011890
 Iteration  3 RMS(Cart)=  0.00001760 RMS(Int)=  0.00011814
 Iteration  4 RMS(Cart)=  0.00000000 RMS(Int)=  0.00011814
 Variable       Old X    -DE/DX   Delta X   Delta X   Delta X     New X
                                 (Linear)    (Quad)   (Total)
    R1        2.02201   0.01571   0.00000   0.02625   0.02625   2.04826
    R2        2.02201   0.01607   0.00000   0.02686   0.02686   2.04886
    R3        2.02201   0.01296   0.00000   0.02167   0.02167   2.04367
    R4        2.91018  -0.02276   0.00000  -0.04720  -0.04720   2.86298
    R5        2.70231  -0.17416   0.00000  -0.26856  -0.26856   2.43375
    R6        2.77790  -0.04439   0.00000  -0.07673  -0.07673   2.70116
    R7        2.77790   0.01275   0.00000   0.02205   0.02205   2.79994
    R8        1.88973   0.01433   0.00000   0.01942   0.01942   1.90915
    R9        2.02201   0.01417   0.00000   0.02367   0.02367   2.04568
   R10        2.02201   0.01335   0.00000   0.02231   0.02231   2.04432
   R11        2.02201   0.01838   0.00000   0.03071   0.03071   2.05272
    A1        1.91063  -0.00130   0.00000  -0.00564  -0.00560   1.90503
    A2        1.91063   0.00084   0.00000   0.00661   0.00654   1.91718
    A3        1.91063   0.00395   0.00000   0.01376   0.01374   1.92437
    A4        1.91063   0.00021   0.00000  -0.00177  -0.00181   1.90882
    A5        1.91063  -0.00337   0.00000  -0.01265  -0.01265   1.89798
    A6        1.91063  -0.00034   0.00000  -0.00031  -0.00037   1.91026
    A7        2.09440   0.00113   0.00000   0.00259   0.00256   2.09696
    A8        2.09440   0.00375   0.00000   0.00861   0.00859   2.10298
    A9        2.09440  -0.00487   0.00000  -0.01119  -0.01122   2.08318
   A10        1.91063   0.01700   0.00000   0.04288   0.04272   1.95335
   A11        1.91063  -0.00752   0.00000  -0.01842  -0.01890   1.89173
   A12        1.91063  -0.00004   0.00000   0.01031   0.01033   1.92097
   A13        1.91063  -0.00242   0.00000  -0.00903  -0.00911   1.90153
   A14        1.91063  -0.00214   0.00000  -0.00773  -0.00783   1.90281
   A15        1.91063   0.01202   0.00000   0.04040   0.04034   1.95098
   A16        1.91063  -0.00097   0.00000  -0.00766  -0.00778   1.90285
   A17        1.91063  -0.00345   0.00000  -0.00903  -0.00907   1.90157
   A18        1.91063  -0.00304   0.00000  -0.00696  -0.00703   1.90360
    D1        2.61799   0.00171   0.00000   0.00943   0.00950   2.62749
    D2       -0.52360   0.00037   0.00000  -0.00295  -0.00292  -0.52652
    D3       -1.57080   0.00048   0.00000   0.00321   0.00319  -1.56760
    D4        1.57080  -0.00086   0.00000  -0.00917  -0.00923   1.56157
    D5        0.52360  -0.00153   0.00000  -0.00690  -0.00689   0.51671
    D6       -2.61799  -0.00287   0.00000  -0.01928  -0.01931  -2.63730
    D7       -1.57080  -0.00819   0.00000  -0.06091  -0.06079  -1.63158
    D8        0.52360  -0.00244   0.00000  -0.03331  -0.03349   0.49011
    D9        1.57080  -0.00953   0.00000  -0.07329  -0.07311   1.49769
   D10       -2.61799  -0.00378   0.00000  -0.04569  -0.04582  -2.66381
   D11        3.14159   0.00259   0.00000   0.01540   0.01554  -3.12605
   D12       -1.04720  -0.00139   0.00000  -0.00424  -0.00404  -1.05124
   D13        1.04720   0.00094   0.00000   0.00725   0.00745   1.05464
   D14        1.04720   0.00142   0.00000   0.00538   0.00516   1.05236
   D15        3.14159  -0.00256   0.00000  -0.01426  -0.01442   3.12718
   D16       -1.04720  -0.00023   0.00000  -0.00276  -0.00293  -1.05013
         Item               Value     Threshold  Converged?
 Maximum Force            0.174164     0.000450     NO 
 RMS     Force            0.028040     0.000300     NO 
 Maximum Displacement     0.211255     0.001800     NO 
 RMS     Displacement     0.070728     0.001200     NO 
 Predicted change in Energy=-3.984231D-02
 GradGradGradGradGradGradGradGradGradGradGradGradGradGradGradGradGradGrad

                          Input orientation:                          
 ---------------------------------------------------------------------
 Center     Atomic      Atomic             Coordinates (Angstroms)
 Number     Number       Type             X           Y           Z
 ---------------------------------------------------------------------
      1          6           0       -2.226591    0.359930    0.060144
      2          1           0       -1.800583   -0.636685    0.070010
      3          1           0       -1.941813    0.877478    0.969297
      4          1           0       -3.304889    0.297771    0.005595
      5          6           0       -1.705542    1.141413   -1.128588
      6          8           0       -2.430877    2.059007   -1.667621
      7          7           0       -0.401882    0.880106   -1.653332
      8          6           0        0.620940    1.776355   -1.065193
      9          1           0        1.583120    1.548643   -1.505900
     10          1           0        0.363138    2.802249   -1.291881
     11          1           0        0.689441    1.657458    0.012357
     12          1           0       -0.168836   -0.084183   -1.462290
 ---------------------------------------------------------------------
                    Distance matrix (angstroms):
                    1          2          3          4          5
     1  C    0.000000
     2  H    1.083892   0.000000
     3  H    1.084211   1.766735   0.000000
     4  H    1.081465   1.772088   1.767133   0.000000
     5  C    1.515022   2.146463   2.127582   2.134482   0.000000
     6  O    2.431825   3.268546   2.930620   2.581764   1.287884
     7  N    2.556588   2.688294   3.041311   3.393907   1.429394
     8  C    3.373585   3.602113   3.393350   4.329542   2.412403
     9  H    4.287124   4.325343   4.359152   5.267061   3.335191
    10  H    3.807833   4.285173   3.759052   4.627125   2.657909
    11  H    3.192038   3.386243   2.906476   4.219416   2.702592
    12  H    2.597960   2.305601   3.159248   3.483591   1.993717
                    6          7          8          9         10
     6  O    0.000000
     7  N    2.346664   0.000000
     8  C    3.123523   1.481666   0.000000
     9  H    4.049543   2.099741   1.082528   0.000000
    10  H    2.915495   2.100128   1.081808   1.762296   0.000000
    11  H    3.566505   2.137705   1.086251   1.765107   1.765802
    12  H    3.122860   1.010278   2.059863   2.395282   2.939988
                   11         12
    11  H    0.000000
    12  H    2.438142   0.000000
 Stoichiometry    C3H7NO
 Framework group  C1[X(C3H7NO)]
 Deg. of freedom    30
 Full point group                 C1      NOp   1
 Largest Abelian subgroup         C1      NOp   1
 Largest concise Abelian subgroup C1      NOp   1
                         Standard orientation:                         
 ---------------------------------------------------------------------
 Center     Atomic      Atomic             Coordinates (Angstroms)
 Number     Number       Type             X           Y           Z
 ---------------------------------------------------------------------
      1          6           0        1.433589   -0.973555   -0.171735
      2          1           0        1.242975   -1.800310    0.502776
      3          1           0        1.257366   -1.298256   -1.191062
      4          1           0        2.459749   -0.647145   -0.071649
      5          6           0        0.504113    0.181838    0.138803
      6          8           0        0.876980    1.392428   -0.093765
      7          7           0       -0.797891   -0.059225    0.677171
      8          6           0       -1.828742   -0.140951   -0.383961
      9          1           0       -2.794308   -0.308041    0.076071
     10          1           0       -1.853113    0.795660   -0.924771
     11          1           0       -1.625905   -0.948421   -1.081665
     12          1           0       -0.771128   -0.922323    1.201581
 ---------------------------------------------------------------------
 Rotational constants (GHZ):           7.8415296           3.9751953           3.0917162
 Standard basis: 6-311G(d,p) (5D, 7F)
 There are   137 symmetry adapted cartesian basis functions of A   symmetry.
 There are   132 symmetry adapted basis functions of A   symmetry.
   132 basis functions,   216 primitive gaussians,   137 cartesian basis functions
    20 alpha electrons       20 beta electrons
       nuclear repulsion energy       177.3141658212 Hartrees.
 NAtoms=   12 NActive=   12 NUniq=   12 SFac= 1.00D+00 NAtFMM=   60 NAOKFM=F Big=F
 Integral buffers will be    131072 words long.
 Raffenetti 2 integral format.
 Two-electron integral symmetry is turned on.
 ------------------------------------------------------------------------------
 Polarizable Continuum Model (PCM)
 =================================
 Model                : PCM.
 Atomic radii         : UFF (Universal Force Field).
 Polarization charges : Total charges.
 Charge compensation  : None.
 Solution method      : On-the-fly selection.
 Cavity type          : Scaled VdW (van der Waals Surface) (Alpha=1.100).
 Cavity algorithm     : GePol (No added spheres)
                        Default sphere list used, NSphG=   12.
                        Lebedev-Laikov grids with approx.  5.0 points / Ang**2.
                        Smoothing algorithm: York/Karplus (Gamma=1.0000).
                        Polarization charges: spherical gaussians, with
                                              point-specific exponents (IZeta= 3).
                        Self-potential: point-specific (ISelfS= 7).
                        Self-field    : sphere-specific E.n sum rule (ISelfD= 2).
 1st derivatives      : Analytical E(r).r(x)/FMM algorithm (CHGder, D1EAlg=3).
                        Cavity 1st derivative terms included.
 Solvent              : CarbonTetraChloride, Eps=   2.228000 Eps(inf)=   2.131892
 ------------------------------------------------------------------------------
 Spheres list:
 ISph  on   Nord     Re0    Alpha      Xe            Ye            Ze
    1   C      1    1.9255  1.100      1.433589     -0.973555     -0.171735
    2   H      2    1.4430  1.100      1.242975     -1.800310      0.502776
    3   H      3    1.4430  1.100      1.257366     -1.298256     -1.191062
    4   H      4    1.4430  1.100      2.459749     -0.647145     -0.071649
    5   C      5    1.9255  1.100      0.504113      0.181838      0.138803
    6   O      6    1.7500  1.100      0.876980      1.392428     -0.093765
    7   N      7    1.8300  1.100     -0.797891     -0.059225      0.677171
    8   C      8    1.9255  1.100     -1.828742     -0.140951     -0.383961
    9   H      9    1.4430  1.100     -2.794308     -0.308041      0.076071
   10   H     10    1.4430  1.100     -1.853113      0.795660     -0.924771
   11   H     11    1.4430  1.100     -1.625905     -0.948421     -1.081665
   12   H     12    1.4430  1.100     -0.771128     -0.922323      1.201581
 ------------------------------------------------------------------------------
 One-electron integrals computed using PRISM.
 NBasis=   132 RedAO= T EigKep=  2.92D-03  NBF=   132
 NBsUse=   132 1.00D-06 EigRej= -1.00D+00 NBFU=   132
 Initial guess from the checkpoint file:  "/kimariyb/g16/scratch/Gau-43976.chk"
 B after Tr=     0.000000    0.000000   -0.000000
         Rot=    0.999476   -0.009735   -0.007412   -0.029977 Ang=  -3.71 deg.
 ExpMin= 1.03D-01 ExpMax= 8.59D+03 ExpMxC= 1.30D+03 IAcc=3 IRadAn=         5 AccDes= 0.00D+00
 Harris functional with IExCor=  402 and IRadAn=       5 diagonalized for initial guess.
 HarFok:  IExCor=  402 AccDes= 0.00D+00 IRadAn=         5 IDoV= 1 UseB2=F ITyADJ=14
 ICtDFT=  3500011 ScaDFX=  1.000000  1.000000  1.000000  1.000000
 FoFCou: FMM=F IPFlag=           0 FMFlag=      100000 FMFlg1=           0
         NFxFlg=           0 DoJE=T BraDBF=F KetDBF=T FulRan=T
         wScrn=  0.000000 ICntrl=       500 IOpCl=  0 I1Cent=   200000004 NGrid=           0
         NMat0=    1 NMatS0=      1 NMatT0=    0 NMatD0=    1 NMtDS0=    0 NMtDT0=    0
 Petite list used in FoFCou.
 Keep R1 ints in memory in canonical form, NReq=48172502.
 Requested convergence on RMS density matrix=1.00D-08 within 128 cycles.
 Requested convergence on MAX density matrix=1.00D-06.
 Requested convergence on             energy=1.00D-06.
 No special actions if energy rises.
 Inv3:  Mode=1 IEnd=     3326427.
 Iteration    1 A*A^-1 deviation from unit magnitude is 3.55D-15 for   1037.
 Iteration    1 A*A^-1 deviation from orthogonality  is 1.47D-15 for   1040   1024.
 Iteration    1 A^-1*A deviation from unit magnitude is 3.55D-15 for   1037.
 Iteration    1 A^-1*A deviation from orthogonality  is 3.41D-15 for    870    841.
 Error on total polarization charges =  0.00549
 SCF Done:  E(RB3LYP) =  -248.566223395     A.U. after   12 cycles
            NFock= 12  Conv=0.33D-08     -V/T= 2.0044
 D1PCM: PCM CHGder 1st derivatives, ID1Alg=3 FixD1E=F DoIter=F DoCFld=F I1PDM=0.
 Calling FoFJK, ICntrl=      2127 FMM=F ISym2X=0 I1Cent= 0 IOpClX= 0 NMat=1 NMatS=1 NMatT=0.
 ***** Axes restored to original set *****
 -------------------------------------------------------------------
 Center     Atomic                   Forces (Hartrees/Bohr)
 Number     Number              X              Y              Z
 -------------------------------------------------------------------
      1        6           0.004171752   -0.002308673   -0.016480127
      2        1           0.001684703   -0.005891110    0.003859823
      3        1           0.002387002    0.002356717    0.005440961
      4        1          -0.005001342    0.000987793    0.001251373
      5        6          -0.050064840    0.065127626   -0.048808664
      6        8           0.054518122   -0.061125771    0.042687700
      7        7          -0.015195130    0.002708859    0.012507880
      8        6          -0.003485993   -0.003620569   -0.007305800
      9        1           0.004576010   -0.000331239   -0.002632552
     10        1          -0.000990583    0.004742632   -0.001952711
     11        1           0.002440497    0.000765395    0.007157291
     12        1           0.004959802   -0.003411660    0.004274826
 -------------------------------------------------------------------
 Cartesian Forces:  Max     0.065127626 RMS     0.022801833

 GradGradGradGradGradGradGradGradGradGradGradGradGradGradGradGradGradGrad
 Berny optimization.
 Using GEDIIS/GDIIS optimizer.
 FormGI is forming the generalized inverse of G from B-inverse, IUseBI=4.
 Internal  Forces:  Max     0.092124558 RMS     0.014372383
 Search for a local minimum.
 Step number   2 out of a maximum of   55
 All quantities printed in internal units (Hartrees-Bohrs-Radians)
 Mixed Optimization -- RFO/linear search
 Update second derivatives using D2CorX and points    1    2
 DE= -4.55D-02 DEPred=-3.98D-02 R= 1.14D+00
 TightC=F SS=  1.41D+00  RLast= 3.21D-01 DXNew= 5.0454D-01 9.6422D-01
 Trust test= 1.14D+00 RLast= 3.21D-01 DXMaxT set to 5.05D-01
 ITU=  1  0
 Use linear search instead of GDIIS.
     Eigenvalues ---    0.00237   0.00447   0.00760   0.00766   0.03154
     Eigenvalues ---    0.07142   0.07279   0.07328   0.07622   0.11704
     Eigenvalues ---    0.15860   0.16000   0.16000   0.16000   0.16000
     Eigenvalues ---    0.16123   0.22894   0.24476   0.25008   0.28474
     Eigenvalues ---    0.31859   0.35760   0.37016   0.37230   0.37230
     Eigenvalues ---    0.37230   0.37230   0.37231   0.39266   0.47772
 RFO step:  Lambda=-4.45966301D-03 EMin= 2.36823611D-03
 Quartic linear search produced a step of  0.54975.
 Iteration  1 RMS(Cart)=  0.03530313 RMS(Int)=  0.00136198
 Iteration  2 RMS(Cart)=  0.00146519 RMS(Int)=  0.00020641
 Iteration  3 RMS(Cart)=  0.00000207 RMS(Int)=  0.00020640
 Iteration  4 RMS(Cart)=  0.00000000 RMS(Int)=  0.00020640
 Variable       Old X    -DE/DX   Delta X   Delta X   Delta X     New X
                                 (Linear)    (Quad)   (Total)
    R1        2.04826   0.00612   0.01443  -0.00447   0.00996   2.05822
    R2        2.04886   0.00631   0.01476  -0.00434   0.01042   2.05928
    R3        2.04367   0.00486   0.01191  -0.00445   0.00746   2.05113
    R4        2.86298  -0.00325  -0.02595   0.04282   0.01687   2.87985
    R5        2.43375  -0.09212  -0.14764  -0.05330  -0.20094   2.23281
    R6        2.70116  -0.01161  -0.04218   0.03847  -0.00371   2.69745
    R7        2.79994   0.00082   0.01212  -0.02185  -0.00973   2.79022
    R8        1.90915   0.00521   0.01068  -0.00311   0.00757   1.91672
    R9        2.04568   0.00521   0.01301  -0.00531   0.00770   2.05338
   R10        2.04432   0.00515   0.01227  -0.00401   0.00825   2.05258
   R11        2.05272   0.00717   0.01688  -0.00519   0.01169   2.06441
    A1        1.90503  -0.00273  -0.00308  -0.01671  -0.01985   1.88518
    A2        1.91718  -0.00096   0.00360  -0.01651  -0.01318   1.90400
    A3        1.92437   0.00553   0.00755   0.02960   0.03698   1.96136
    A4        1.90882  -0.00086  -0.00100  -0.00813  -0.00915   1.89966
    A5        1.89798  -0.00136  -0.00695   0.00741   0.00041   1.89839
    A6        1.91026   0.00034  -0.00020   0.00427   0.00391   1.91417
    A7        2.09696   0.00333   0.00141   0.01693   0.01817   2.11513
    A8        2.10298  -0.00652   0.00472  -0.05129  -0.04674   2.05624
    A9        2.08318   0.00317  -0.00617   0.03478   0.02844   2.11162
   A10        1.95335   0.01024   0.02349   0.01182   0.03495   1.98830
   A11        1.89173  -0.00153  -0.01039   0.04460   0.03403   1.92576
   A12        1.92097  -0.00221   0.00568  -0.03017  -0.02531   1.89566
   A13        1.90153  -0.00045  -0.00501   0.01323   0.00818   1.90971
   A14        1.90281  -0.00131  -0.00430   0.00135  -0.00304   1.89977
   A15        1.95098   0.00421   0.02218  -0.03241  -0.01028   1.94070
   A16        1.90285  -0.00070  -0.00428   0.01021   0.00585   1.90870
   A17        1.90157  -0.00113  -0.00498   0.00551   0.00053   1.90210
   A18        1.90360  -0.00071  -0.00387   0.00301  -0.00095   1.90265
    D1        2.62749   0.00133   0.00522  -0.00339   0.00196   2.62945
    D2       -0.52652   0.00005  -0.00161   0.03727   0.03570  -0.49082
    D3       -1.56760   0.00046   0.00175  -0.00148   0.00033  -1.56727
    D4        1.56157  -0.00082  -0.00507   0.03918   0.03407   1.59564
    D5        0.51671  -0.00119  -0.00379  -0.00440  -0.00823   0.50848
    D6       -2.63730  -0.00247  -0.01061   0.03626   0.02551  -2.61180
    D7       -1.63158  -0.00687  -0.03342   0.03495   0.00105  -1.63053
    D8        0.49011  -0.00414  -0.01841   0.03488   0.01680   0.50691
    D9        1.49769  -0.00813  -0.04019   0.07518   0.03464   1.53233
   D10       -2.66381  -0.00541  -0.02519   0.07510   0.05040  -2.61341
   D11       -3.12605   0.00270   0.00854   0.00748   0.01588  -3.11018
   D12       -1.05124   0.00083  -0.00222   0.02831   0.02597  -1.02527
   D13        1.05464   0.00175   0.00409   0.01232   0.01633   1.07098
   D14        1.05236  -0.00063   0.00284  -0.03615  -0.03322   1.01914
   D15        3.12718  -0.00251  -0.00793  -0.01532  -0.02313   3.10404
   D16       -1.05013  -0.00158  -0.00161  -0.03131  -0.03277  -1.08289
         Item               Value     Threshold  Converged?
 Maximum Force            0.092125     0.000450     NO 
 RMS     Force            0.014372     0.000300     NO 
 Maximum Displacement     0.111715     0.001800     NO 
 RMS     Displacement     0.035183     0.001200     NO 
 Predicted change in Energy=-1.296856D-02
 GradGradGradGradGradGradGradGradGradGradGradGradGradGradGradGradGradGrad

                          Input orientation:                          
 ---------------------------------------------------------------------
 Center     Atomic      Atomic             Coordinates (Angstroms)
 Number     Number       Type             X           Y           Z
 ---------------------------------------------------------------------
      1          6           0       -2.225508    0.368854    0.047621
      2          1           0       -1.770438   -0.619776    0.090068
      3          1           0       -1.968241    0.897905    0.964911
      4          1           0       -3.304321    0.261160   -0.004155
      5          6           0       -1.733495    1.183397   -1.142702
      6          8           0       -2.419807    1.999890   -1.651012
      7          7           0       -0.424487    0.909533   -1.641750
      8          6           0        0.627896    1.770660   -1.066376
      9          1           0        1.584565    1.522733   -1.518063
     10          1           0        0.387423    2.808314   -1.279036
     11          1           0        0.700295    1.636577    0.015383
     12          1           0       -0.178255   -0.059707   -1.472292
 ---------------------------------------------------------------------
                    Distance matrix (angstroms):
                    1          2          3          4          5
     1  C    0.000000
     2  H    1.089165   0.000000
     3  H    1.089726   1.762904   0.000000
     4  H    1.085411   1.771362   1.769079   0.000000
     5  C    1.523950   2.184610   2.139776   2.148094   0.000000
     6  O    2.362919   3.211805   2.874254   2.552976   1.181551
     7  N    2.527842   2.673867   3.029520   3.375729   1.427429
     8  C    3.368673   3.578205   3.409949   4.343873   2.434516
     9  H    4.277787   4.293306   4.379269   5.271119   3.356422
    10  H    3.812924   4.275817   3.772812   4.662863   2.675301
    11  H    3.188806   3.346824   2.927170   4.234277   2.733106
    12  H    2.585545   2.299933   3.171912   3.468526   2.018096
                    6          7          8          9         10
     6  O    0.000000
     7  N    2.273822   0.000000
     8  C    3.111726   1.476518   0.000000
     9  H    4.034891   2.104187   1.086602   0.000000
    10  H    2.944903   2.096695   1.086176   1.772851   0.000000
    11  H    3.555827   2.130686   1.092439   1.773796   1.773803
    12  H    3.049334   1.014284   2.040806   2.369335   2.929656
                   11         12
    11  H    0.000000
    12  H    2.421241   0.000000
 Stoichiometry    C3H7NO
 Framework group  C1[X(C3H7NO)]
 Deg. of freedom    30
 Full point group                 C1      NOp   1
 Largest Abelian subgroup         C1      NOp   1
 Largest concise Abelian subgroup C1      NOp   1
                         Standard orientation:                         
 ---------------------------------------------------------------------
 Center     Atomic      Atomic             Coordinates (Angstroms)
 Number     Number       Type             X           Y           Z
 ---------------------------------------------------------------------
      1          6           0        1.423151   -0.963461   -0.151815
      2          1           0        1.214685   -1.798101    0.516165
      3          1           0        1.266536   -1.303620   -1.175175
      4          1           0        2.460743   -0.666641   -0.035978
      5          6           0        0.515109    0.231633    0.112069
      6          8           0        0.877766    1.335163   -0.104185
      7          7           0       -0.780284   -0.023155    0.654834
      8          6           0       -1.840612   -0.156739   -0.363972
      9          1           0       -2.796188   -0.316658    0.127966
     10          1           0       -1.884470    0.758701   -0.946917
     11          1           0       -1.641017   -0.996155   -1.034021
     12          1           0       -0.766321   -0.865335    1.219909
 ---------------------------------------------------------------------
 Rotational constants (GHZ):           8.2559242           3.9974955           3.1388087
 Standard basis: 6-311G(d,p) (5D, 7F)
 There are   137 symmetry adapted cartesian basis functions of A   symmetry.
 There are   132 symmetry adapted basis functions of A   symmetry.
   132 basis functions,   216 primitive gaussians,   137 cartesian basis functions
    20 alpha electrons       20 beta electrons
       nuclear repulsion energy       179.8201372837 Hartrees.
 NAtoms=   12 NActive=   12 NUniq=   12 SFac= 1.00D+00 NAtFMM=   60 NAOKFM=F Big=F
 Integral buffers will be    131072 words long.
 Raffenetti 2 integral format.
 Two-electron integral symmetry is turned on.
 ------------------------------------------------------------------------------
 Polarizable Continuum Model (PCM)
 =================================
 Model                : PCM.
 Atomic radii         : UFF (Universal Force Field).
 Polarization charges : Total charges.
 Charge compensation  : None.
 Solution method      : On-the-fly selection.
 Cavity type          : Scaled VdW (van der Waals Surface) (Alpha=1.100).
 Cavity algorithm     : GePol (No added spheres)
                        Default sphere list used, NSphG=   12.
                        Lebedev-Laikov grids with approx.  5.0 points / Ang**2.
                        Smoothing algorithm: York/Karplus (Gamma=1.0000).
                        Polarization charges: spherical gaussians, with
                                              point-specific exponents (IZeta= 3).
                        Self-potential: point-specific (ISelfS= 7).
                        Self-field    : sphere-specific E.n sum rule (ISelfD= 2).
 1st derivatives      : Analytical E(r).r(x)/FMM algorithm (CHGder, D1EAlg=3).
                        Cavity 1st derivative terms included.
 Solvent              : CarbonTetraChloride, Eps=   2.228000 Eps(inf)=   2.131892
 ------------------------------------------------------------------------------
 Spheres list:
 ISph  on   Nord     Re0    Alpha      Xe            Ye            Ze
    1   C      1    1.9255  1.100      1.423151     -0.963461     -0.151815
    2   H      2    1.4430  1.100      1.214685     -1.798101      0.516165
    3   H      3    1.4430  1.100      1.266536     -1.303620     -1.175175
    4   H      4    1.4430  1.100      2.460743     -0.666641     -0.035978
    5   C      5    1.9255  1.100      0.515109      0.231633      0.112069
    6   O      6    1.7500  1.100      0.877766      1.335163     -0.104185
    7   N      7    1.8300  1.100     -0.780284     -0.023155      0.654834
    8   C      8    1.9255  1.100     -1.840612     -0.156739     -0.363972
    9   H      9    1.4430  1.100     -2.796188     -0.316658      0.127966
   10   H     10    1.4430  1.100     -1.884470      0.758701     -0.946917
   11   H     11    1.4430  1.100     -1.641017     -0.996155     -1.034021
   12   H     12    1.4430  1.100     -0.766321     -0.865335      1.219909
 ------------------------------------------------------------------------------
 One-electron integrals computed using PRISM.
 NBasis=   132 RedAO= T EigKep=  2.99D-03  NBF=   132
 NBsUse=   132 1.00D-06 EigRej= -1.00D+00 NBFU=   132
 Initial guess from the checkpoint file:  "/kimariyb/g16/scratch/Gau-43976.chk"
 B after Tr=    -0.000000   -0.000000   -0.000000
         Rot=    0.999931    0.011502   -0.001960    0.001169 Ang=   1.34 deg.
 ExpMin= 1.03D-01 ExpMax= 8.59D+03 ExpMxC= 1.30D+03 IAcc=3 IRadAn=         5 AccDes= 0.00D+00
 Harris functional with IExCor=  402 and IRadAn=       5 diagonalized for initial guess.
 HarFok:  IExCor=  402 AccDes= 0.00D+00 IRadAn=         5 IDoV= 1 UseB2=F ITyADJ=14
 ICtDFT=  3500011 ScaDFX=  1.000000  1.000000  1.000000  1.000000
 FoFCou: FMM=F IPFlag=           0 FMFlag=      100000 FMFlg1=           0
         NFxFlg=           0 DoJE=T BraDBF=F KetDBF=T FulRan=T
         wScrn=  0.000000 ICntrl=       500 IOpCl=  0 I1Cent=   200000004 NGrid=           0
         NMat0=    1 NMatS0=      1 NMatT0=    0 NMatD0=    1 NMtDS0=    0 NMtDT0=    0
 Petite list used in FoFCou.
 Keep R1 ints in memory in canonical form, NReq=48172502.
 Requested convergence on RMS density matrix=1.00D-08 within 128 cycles.
 Requested convergence on MAX density matrix=1.00D-06.
 Requested convergence on             energy=1.00D-06.
 No special actions if energy rises.
 Inv3:  Mode=1 IEnd=     3320112.
 Iteration    1 A*A^-1 deviation from unit magnitude is 4.88D-15 for   1039.
 Iteration    1 A*A^-1 deviation from orthogonality  is 1.51D-15 for   1039    511.
 Iteration    1 A^-1*A deviation from unit magnitude is 4.88D-15 for   1039.
 Iteration    1 A^-1*A deviation from orthogonality  is 1.97D-15 for    964    382.
 Error on total polarization charges =  0.00553
 SCF Done:  E(RB3LYP) =  -248.572818349     A.U. after   11 cycles
            NFock= 11  Conv=0.54D-08     -V/T= 2.0032
 D1PCM: PCM CHGder 1st derivatives, ID1Alg=3 FixD1E=F DoIter=F DoCFld=F I1PDM=0.
 Calling FoFJK, ICntrl=      2127 FMM=F ISym2X=0 I1Cent= 0 IOpClX= 0 NMat=1 NMatS=1 NMatT=0.
 ***** Axes restored to original set *****
 -------------------------------------------------------------------
 Center     Atomic                   Forces (Hartrees/Bohr)
 Number     Number              X              Y              Z
 -------------------------------------------------------------------
      1        6           0.002170323   -0.005262934   -0.005638753
      2        1           0.001395041   -0.001730268    0.001098093
      3        1           0.001053005    0.001450310    0.002384781
      4        1          -0.003194453    0.001498621    0.000946647
      5        6           0.017108015   -0.035161340    0.011528296
      6        8          -0.022775138    0.038327082   -0.015174625
      7        7           0.003980795   -0.003660718    0.002613509
      8        6          -0.006006179   -0.001044850   -0.003099079
      9        1           0.001906237    0.000531174   -0.001732520
     10        1           0.001112732    0.003038375   -0.001024651
     11        1           0.003594121    0.002185504    0.003993501
     12        1          -0.000344498   -0.000170958    0.004104800
 -------------------------------------------------------------------
 Cartesian Forces:  Max     0.038327082 RMS     0.010703540

 GradGradGradGradGradGradGradGradGradGradGradGradGradGradGradGradGradGrad
 Berny optimization.
 Using GEDIIS/GDIIS optimizer.
 FormGI is forming the generalized inverse of G from B-inverse, IUseBI=4.
 Internal  Forces:  Max     0.046242741 RMS     0.007476995
 Search for a local minimum.
 Step number   3 out of a maximum of   55
 All quantities printed in internal units (Hartrees-Bohrs-Radians)
 Mixed Optimization -- RFO/linear search
 Update second derivatives using D2CorX and points    1    2    3
 DE= -6.59D-03 DEPred=-1.30D-02 R= 5.09D-01
 TightC=F SS=  1.41D+00  RLast= 2.47D-01 DXNew= 8.4853D-01 7.4117D-01
 Trust test= 5.09D-01 RLast= 2.47D-01 DXMaxT set to 7.41D-01
 ITU=  1  1  0
 Use linear search instead of GDIIS.
     Eigenvalues ---    0.00237   0.00451   0.00758   0.00766   0.02931
     Eigenvalues ---    0.06867   0.07274   0.07349   0.07594   0.12095
     Eigenvalues ---    0.15862   0.16000   0.16000   0.16000   0.16008
     Eigenvalues ---    0.16174   0.22973   0.24664   0.25047   0.28855
     Eigenvalues ---    0.35751   0.36203   0.37227   0.37230   0.37230
     Eigenvalues ---    0.37230   0.37230   0.38130   0.47711   0.73942
 RFO step:  Lambda=-8.62664088D-03 EMin= 2.36784605D-03
 Quartic linear search produced a step of -0.26187.
 Iteration  1 RMS(Cart)=  0.12231680 RMS(Int)=  0.03867645
 Iteration  2 RMS(Cart)=  0.07548569 RMS(Int)=  0.00211625
 Iteration  3 RMS(Cart)=  0.00280401 RMS(Int)=  0.00055981
 Iteration  4 RMS(Cart)=  0.00000314 RMS(Int)=  0.00055980
 Iteration  5 RMS(Cart)=  0.00000000 RMS(Int)=  0.00055980
 Variable       Old X    -DE/DX   Delta X   Delta X   Delta X     New X
                                 (Linear)    (Quad)   (Total)
    R1        2.05822   0.00220  -0.00261   0.00988   0.00727   2.06549
    R2        2.05928   0.00296  -0.00273   0.01157   0.00884   2.06813
    R3        2.05113   0.00298  -0.00195   0.01027   0.00831   2.05944
    R4        2.87985   0.00075  -0.00442   0.00050  -0.00391   2.87593
    R5        2.23281   0.04624   0.05262   0.00418   0.05680   2.28961
    R6        2.69745   0.00202   0.00097  -0.00555  -0.00458   2.69287
    R7        2.79022   0.00246   0.00255   0.00499   0.00753   2.79775
    R8        1.91672   0.00077  -0.00198   0.00487   0.00289   1.91961
    R9        2.05338   0.00228  -0.00202   0.00916   0.00714   2.06052
   R10        2.05258   0.00286  -0.00216   0.01030   0.00814   2.06071
   R11        2.06441   0.00393  -0.00306   0.01425   0.01119   2.07560
    A1        1.88518  -0.00061   0.00520  -0.01480  -0.00954   1.87565
    A2        1.90400   0.00080   0.00345   0.00938   0.01270   1.91670
    A3        1.96136   0.00122  -0.00968   0.02516   0.01544   1.97679
    A4        1.89966  -0.00055   0.00240  -0.01280  -0.01045   1.88921
    A5        1.89839  -0.00104  -0.00011  -0.01225  -0.01234   1.88605
    A6        1.91417   0.00010  -0.00102   0.00381   0.00269   1.91686
    A7        2.11513   0.00351  -0.00476   0.01664   0.01045   2.12558
    A8        2.05624  -0.00462   0.01224  -0.02584  -0.01502   2.04121
    A9        2.11162   0.00116  -0.00745   0.01091   0.00205   2.11368
   A10        1.98830   0.00481  -0.00915   0.04319   0.03294   2.02125
   A11        1.92576  -0.00334  -0.00891   0.01949   0.00864   1.93439
   A12        1.89566   0.00202   0.00663   0.03073   0.03632   1.93198
   A13        1.90971  -0.00140  -0.00214  -0.00768  -0.00991   1.89980
   A14        1.89977   0.00063   0.00080  -0.00157  -0.00097   1.89880
   A15        1.94070   0.00668   0.00269   0.03875   0.04129   1.98199
   A16        1.90870  -0.00183  -0.00153  -0.01655  -0.01820   1.89050
   A17        1.90210  -0.00195  -0.00014  -0.00708  -0.00727   1.89482
   A18        1.90265  -0.00224   0.00025  -0.00663  -0.00663   1.89603
    D1        2.62945   0.00173  -0.00051   0.06359   0.06323   2.69268
    D2       -0.49082  -0.00091  -0.00935  -0.02715  -0.03649  -0.52732
    D3       -1.56727   0.00104  -0.00009   0.05266   0.05260  -1.51468
    D4        1.59564  -0.00159  -0.00892  -0.03808  -0.04713   1.54851
    D5        0.50848  -0.00018   0.00216   0.03206   0.03426   0.54273
    D6       -2.61180  -0.00282  -0.00668  -0.05868  -0.06546  -2.67726
    D7       -1.63053  -0.00627  -0.00027  -0.30851  -0.30881  -1.93934
    D8        0.50691  -0.00270  -0.00440  -0.22224  -0.22692   0.27999
    D9        1.53233  -0.00894  -0.00907  -0.39913  -0.40792   1.12442
   D10       -2.61341  -0.00536  -0.01320  -0.31286  -0.32603  -2.93944
   D11       -3.11018   0.00155  -0.00416   0.04645   0.04278  -3.06739
   D12       -1.02527  -0.00112  -0.00680   0.02087   0.01454  -1.01073
   D13        1.07098   0.00065  -0.00428   0.03565   0.03196   1.10294
   D14        1.01914   0.00101   0.00870  -0.03203  -0.02388   0.99526
   D15        3.10404  -0.00166   0.00606  -0.05761  -0.05212   3.05192
   D16       -1.08289   0.00011   0.00858  -0.04283  -0.03470  -1.11759
         Item               Value     Threshold  Converged?
 Maximum Force            0.046243     0.000450     NO 
 RMS     Force            0.007477     0.000300     NO 
 Maximum Displacement     0.525629     0.001800     NO 
 RMS     Displacement     0.194881     0.001200     NO 
 Predicted change in Energy=-8.671217D-03
 GradGradGradGradGradGradGradGradGradGradGradGradGradGradGradGradGradGrad

                          Input orientation:                          
 ---------------------------------------------------------------------
 Center     Atomic      Atomic             Coordinates (Angstroms)
 Number     Number       Type             X           Y           Z
 ---------------------------------------------------------------------
      1          6           0       -2.309290    0.279410    0.010973
      2          1           0       -1.945470   -0.750387   -0.031767
      3          1           0       -2.028029    0.686921    0.986961
      4          1           0       -3.396535    0.290542   -0.062927
      5          6           0       -1.709604    1.173844   -1.064425
      6          8           0       -2.286533    2.159120   -1.469865
      7          7           0       -0.392265    0.858000   -1.506573
      8          6           0        0.662971    1.826462   -1.131799
      9          1           0        1.603600    1.516694   -1.588075
     10          1           0        0.396555    2.806993   -1.527698
     11          1           0        0.812735    1.914728   -0.047282
     12          1           0       -0.132509   -0.082786   -1.224927
 ---------------------------------------------------------------------
                    Distance matrix (angstroms):
                    1          2          3          4          5
     1  C    0.000000
     2  H    1.093011   0.000000
     3  H    1.094406   1.763653   0.000000
     4  H    1.089811   1.786083   1.769800   0.000000
     5  C    1.521879   2.196515   2.132292   2.151501   0.000000
     6  O    2.393054   3.263385   2.875793   2.589047   1.211610
     7  N    2.512508   2.678508   2.987089   3.381089   1.425004
     8  C    3.540287   3.828078   3.609595   4.470025   2.461618
     9  H    4.404377   4.489727   4.528583   5.369439   3.371807
    10  H    4.009711   4.514182   4.086174   4.781800   2.705125
    11  H    3.524869   3.835462   3.262991   4.511783   2.818809
    12  H    2.529232   2.270716   3.012954   3.484751   2.022896
                    6          7          8          9         10
     6  O    0.000000
     7  N    2.298372   0.000000
     8  C    2.987394   1.480505   0.000000
     9  H    3.944594   2.103330   1.090380   0.000000
    10  H    2.760805   2.102678   1.090483   1.767902   0.000000
    11  H    3.418908   2.167539   1.098361   1.777060   1.777912
    12  H    3.118647   1.015813   2.070432   2.388365   2.953371
                   11         12
    11  H    0.000000
    12  H    2.504076   0.000000
 Stoichiometry    C3H7NO
 Framework group  C1[X(C3H7NO)]
 Deg. of freedom    30
 Full point group                 C1      NOp   1
 Largest Abelian subgroup         C1      NOp   1
 Largest concise Abelian subgroup C1      NOp   1
                         Standard orientation:                         
 ---------------------------------------------------------------------
 Center     Atomic      Atomic             Coordinates (Angstroms)
 Number     Number       Type             X           Y           Z
 ---------------------------------------------------------------------
      1          6           0        1.597770   -0.795853   -0.209137
      2          1           0        1.532612   -1.726507    0.360347
      3          1           0        1.485557   -1.049962   -1.267703
      4          1           0        2.579870   -0.344775   -0.068794
      5          6           0        0.512330    0.207574    0.152896
      6          8           0        0.667490    1.399209   -0.001798
      7          7           0       -0.736046   -0.321448    0.591449
      8          6           0       -1.877238   -0.130411   -0.332176
      9          1           0       -2.782892   -0.506931    0.144219
     10          1           0       -2.005206    0.936745   -0.516449
     11          1           0       -1.751513   -0.640519   -1.296738
     12          1           0       -0.643200   -1.299447    0.849853
 ---------------------------------------------------------------------
 Rotational constants (GHZ):           8.4853020           3.9163516           3.0497205
 Standard basis: 6-311G(d,p) (5D, 7F)
 There are   137 symmetry adapted cartesian basis functions of A   symmetry.
 There are   132 symmetry adapted basis functions of A   symmetry.
   132 basis functions,   216 primitive gaussians,   137 cartesian basis functions
    20 alpha electrons       20 beta electrons
       nuclear repulsion energy       178.6184278854 Hartrees.
 NAtoms=   12 NActive=   12 NUniq=   12 SFac= 1.00D+00 NAtFMM=   60 NAOKFM=F Big=F
 Integral buffers will be    131072 words long.
 Raffenetti 2 integral format.
 Two-electron integral symmetry is turned on.
 ------------------------------------------------------------------------------
 Polarizable Continuum Model (PCM)
 =================================
 Model                : PCM.
 Atomic radii         : UFF (Universal Force Field).
 Polarization charges : Total charges.
 Charge compensation  : None.
 Solution method      : On-the-fly selection.
 Cavity type          : Scaled VdW (van der Waals Surface) (Alpha=1.100).
 Cavity algorithm     : GePol (No added spheres)
                        Default sphere list used, NSphG=   12.
                        Lebedev-Laikov grids with approx.  5.0 points / Ang**2.
                        Smoothing algorithm: York/Karplus (Gamma=1.0000).
                        Polarization charges: spherical gaussians, with
                                              point-specific exponents (IZeta= 3).
                        Self-potential: point-specific (ISelfS= 7).
                        Self-field    : sphere-specific E.n sum rule (ISelfD= 2).
 1st derivatives      : Analytical E(r).r(x)/FMM algorithm (CHGder, D1EAlg=3).
                        Cavity 1st derivative terms included.
 Solvent              : CarbonTetraChloride, Eps=   2.228000 Eps(inf)=   2.131892
 ------------------------------------------------------------------------------
 Spheres list:
 ISph  on   Nord     Re0    Alpha      Xe            Ye            Ze
    1   C      1    1.9255  1.100      1.597770     -0.795853     -0.209137
    2   H      2    1.4430  1.100      1.532612     -1.726507      0.360347
    3   H      3    1.4430  1.100      1.485557     -1.049962     -1.267703
    4   H      4    1.4430  1.100      2.579870     -0.344775     -0.068794
    5   C      5    1.9255  1.100      0.512330      0.207574      0.152896
    6   O      6    1.7500  1.100      0.667490      1.399209     -0.001798
    7   N      7    1.8300  1.100     -0.736046     -0.321448      0.591449
    8   C      8    1.9255  1.100     -1.877238     -0.130411     -0.332176
    9   H      9    1.4430  1.100     -2.782892     -0.506931      0.144219
   10   H     10    1.4430  1.100     -2.005206      0.936745     -0.516449
   11   H     11    1.4430  1.100     -1.751513     -0.640519     -1.296738
   12   H     12    1.4430  1.100     -0.643200     -1.299447      0.849853
 ------------------------------------------------------------------------------
 One-electron integrals computed using PRISM.
 NBasis=   132 RedAO= T EigKep=  2.98D-03  NBF=   132
 NBsUse=   132 1.00D-06 EigRej= -1.00D+00 NBFU=   132
 Initial guess from the checkpoint file:  "/kimariyb/g16/scratch/Gau-43976.chk"
 B after Tr=     0.000000   -0.000000   -0.000000
         Rot=    0.995795   -0.080294   -0.004770   -0.043852 Ang= -10.51 deg.
 ExpMin= 1.03D-01 ExpMax= 8.59D+03 ExpMxC= 1.30D+03 IAcc=3 IRadAn=         5 AccDes= 0.00D+00
 Harris functional with IExCor=  402 and IRadAn=       5 diagonalized for initial guess.
 HarFok:  IExCor=  402 AccDes= 0.00D+00 IRadAn=         5 IDoV= 1 UseB2=F ITyADJ=14
 ICtDFT=  3500011 ScaDFX=  1.000000  1.000000  1.000000  1.000000
 FoFCou: FMM=F IPFlag=           0 FMFlag=      100000 FMFlg1=           0
         NFxFlg=           0 DoJE=T BraDBF=F KetDBF=T FulRan=T
         wScrn=  0.000000 ICntrl=       500 IOpCl=  0 I1Cent=   200000004 NGrid=           0
         NMat0=    1 NMatS0=      1 NMatT0=    0 NMatD0=    1 NMtDS0=    0 NMtDT0=    0
 Petite list used in FoFCou.
 Keep R1 ints in memory in canonical form, NReq=48172502.
 Requested convergence on RMS density matrix=1.00D-08 within 128 cycles.
 Requested convergence on MAX density matrix=1.00D-06.
 Requested convergence on             energy=1.00D-06.
 No special actions if energy rises.
 Inv3:  Mode=1 IEnd=     3339075.
 Iteration    1 A*A^-1 deviation from unit magnitude is 3.55D-15 for   1024.
 Iteration    1 A*A^-1 deviation from orthogonality  is 2.23D-15 for   1044    167.
 Iteration    1 A^-1*A deviation from unit magnitude is 3.11D-15 for   1024.
 Iteration    1 A^-1*A deviation from orthogonality  is 1.58D-15 for   1029    407.
 Error on total polarization charges =  0.00520
 SCF Done:  E(RB3LYP) =  -248.583401432     A.U. after   11 cycles
            NFock= 11  Conv=0.97D-08     -V/T= 2.0040
 D1PCM: PCM CHGder 1st derivatives, ID1Alg=3 FixD1E=F DoIter=F DoCFld=F I1PDM=0.
 Calling FoFJK, ICntrl=      2127 FMM=F ISym2X=0 I1Cent= 0 IOpClX= 0 NMat=1 NMatS=1 NMatT=0.
 ***** Axes restored to original set *****
 -------------------------------------------------------------------
 Center     Atomic                   Forces (Hartrees/Bohr)
 Number     Number              X              Y              Z
 -------------------------------------------------------------------
      1        6          -0.001636952   -0.004997280   -0.007024253
      2        1          -0.000494628    0.000210490   -0.000441326
      3        1           0.000924827    0.000935189   -0.000525748
      4        1           0.000008192    0.000123468    0.000454250
      5        6           0.010052224    0.001816930   -0.002756039
      6        8           0.001837289    0.001661543    0.002953866
      7        7          -0.007278756   -0.002677319    0.015503410
      8        6          -0.002937196    0.001573821   -0.009526222
      9        1           0.000112860    0.000295653   -0.000513258
     10        1           0.000172076   -0.000530011    0.000124485
     11        1          -0.001356774   -0.001380249   -0.000527082
     12        1           0.000596838    0.002967767    0.002277917
 -------------------------------------------------------------------
 Cartesian Forces:  Max     0.015503410 RMS     0.004176432

 GradGradGradGradGradGradGradGradGradGradGradGradGradGradGradGradGradGrad
 Berny optimization.
 Using GEDIIS/GDIIS optimizer.
 FormGI is forming the generalized inverse of G from B-inverse, IUseBI=4.
 Internal  Forces:  Max     0.012210756 RMS     0.003169315
 Search for a local minimum.
 Step number   4 out of a maximum of   55
 All quantities printed in internal units (Hartrees-Bohrs-Radians)
 Mixed Optimization -- RFO/linear search
 Update second derivatives using D2CorX and points    3    4
 DE= -1.06D-02 DEPred=-8.67D-03 R= 1.22D+00
 TightC=F SS=  1.41D+00  RLast= 6.73D-01 DXNew= 1.2465D+00 2.0180D+00
 Trust test= 1.22D+00 RLast= 6.73D-01 DXMaxT set to 1.25D+00
 ITU=  1  1  1  0
 Use linear search instead of GDIIS.
     Eigenvalues ---    0.00115   0.00237   0.00765   0.00897   0.02319
     Eigenvalues ---    0.06711   0.07055   0.07355   0.07835   0.12549
     Eigenvalues ---    0.15826   0.16000   0.16000   0.16004   0.16026
     Eigenvalues ---    0.17244   0.22162   0.24575   0.25039   0.28841
     Eigenvalues ---    0.35623   0.36129   0.37226   0.37230   0.37230
     Eigenvalues ---    0.37230   0.37231   0.38917   0.47900   1.27293
 RFO step:  Lambda=-1.05892734D-02 EMin= 1.14858196D-03
 Quartic linear search produced a step of  1.17682.
 Iteration  1 RMS(Cart)=  0.14418496 RMS(Int)=  0.13501058
 Iteration  2 RMS(Cart)=  0.13104367 RMS(Int)=  0.07402062
 Iteration  3 RMS(Cart)=  0.12067474 RMS(Int)=  0.01523278
 Iteration  4 RMS(Cart)=  0.02983182 RMS(Int)=  0.00312901
 Iteration  5 RMS(Cart)=  0.00057467 RMS(Int)=  0.00311092
 Iteration  6 RMS(Cart)=  0.00000153 RMS(Int)=  0.00311092
 Iteration  7 RMS(Cart)=  0.00000001 RMS(Int)=  0.00311092
 Variable       Old X    -DE/DX   Delta X   Delta X   Delta X     New X
                                 (Linear)    (Quad)   (Total)
    R1        2.06549  -0.00035   0.00855   0.00077   0.00932   2.07482
    R2        2.06813   0.00012   0.01041   0.00282   0.01323   2.08136
    R3        2.05944  -0.00004   0.00978   0.00228   0.01207   2.07151
    R4        2.87593  -0.00267  -0.00461  -0.01043  -0.01504   2.86089
    R5        2.28961  -0.00051   0.06685   0.02685   0.09370   2.38331
    R6        2.69287  -0.01221  -0.00539  -0.03962  -0.04501   2.64786
    R7        2.79775  -0.00553   0.00887  -0.01638  -0.00751   2.79024
    R8        1.91961  -0.00196   0.00340  -0.00435  -0.00095   1.91866
    R9        2.06052   0.00023   0.00840   0.00263   0.01104   2.07155
   R10        2.06071  -0.00057   0.00958   0.00052   0.01010   2.07081
   R11        2.07560  -0.00082   0.01317   0.00059   0.01376   2.08936
    A1        1.87565   0.00090  -0.01122   0.00297  -0.00804   1.86761
    A2        1.91670  -0.00013   0.01495   0.00266   0.01681   1.93351
    A3        1.97679   0.00014   0.01817   0.00594   0.02374   2.00053
    A4        1.88921   0.00050  -0.01230   0.00028  -0.01220   1.87701
    A5        1.88605  -0.00215  -0.01453  -0.01874  -0.03324   1.85281
    A6        1.91686   0.00072   0.00316   0.00619   0.00879   1.92565
    A7        2.12558   0.00145   0.01230   0.01571   0.02454   2.15011
    A8        2.04121  -0.00200  -0.01768  -0.01019  -0.03133   2.00988
    A9        2.11368   0.00067   0.00242   0.01015   0.00911   2.12278
   A10        2.02125   0.00430   0.03877   0.04142   0.07072   2.09197
   A11        1.93439  -0.00184   0.01016   0.01346   0.01051   1.94491
   A12        1.93198   0.00161   0.04274   0.04680   0.08049   2.01247
   A13        1.89980   0.00063  -0.01166   0.00333  -0.00852   1.89128
   A14        1.89880   0.00042  -0.00114   0.00340   0.00181   1.90060
   A15        1.98199  -0.00276   0.04859  -0.01100   0.03720   2.01918
   A16        1.89050  -0.00021  -0.02142  -0.00266  -0.02431   1.86619
   A17        1.89482   0.00103  -0.00856   0.00454  -0.00415   1.89067
   A18        1.89603   0.00098  -0.00780   0.00260  -0.00579   1.89023
    D1        2.69268  -0.00105   0.07441  -0.13587  -0.06116   2.63152
    D2       -0.52732   0.00075  -0.04295   0.08992   0.04743  -0.47989
    D3       -1.51468  -0.00128   0.06190  -0.14113  -0.07946  -1.59414
    D4        1.54851   0.00051  -0.05546   0.08467   0.02912   1.57763
    D5        0.54273  -0.00152   0.04031  -0.14821  -0.10818   0.43455
    D6       -2.67726   0.00027  -0.07704   0.07759   0.00040  -2.67686
    D7       -1.93934  -0.00965  -0.36341  -0.43503  -0.79746  -2.73680
    D8        0.27999  -0.00542  -0.26705  -0.32273  -0.59046  -0.31048
    D9        1.12442  -0.00783  -0.48004  -0.21060  -0.68996   0.43445
   D10       -2.93944  -0.00360  -0.38368  -0.09830  -0.48297   2.86078
   D11       -3.06739   0.00129   0.05035   0.05967   0.11287  -2.95452
   D12       -1.01073   0.00163   0.01712   0.06029   0.08019  -0.93054
   D13        1.10294   0.00136   0.03761   0.05877   0.09946   1.20240
   D14        0.99526  -0.00120  -0.02810  -0.03582  -0.06687   0.92839
   D15        3.05192  -0.00087  -0.06133  -0.03519  -0.09956   2.95237
   D16       -1.11759  -0.00114  -0.04083  -0.03672  -0.08028  -1.19787
         Item               Value     Threshold  Converged?
 Maximum Force            0.012211     0.000450     NO 
 RMS     Force            0.003169     0.000300     NO 
 Maximum Displacement     1.144725     0.001800     NO 
 RMS     Displacement     0.414232     0.001200     NO 
 Predicted change in Energy=-1.877292D-02
 GradGradGradGradGradGradGradGradGradGradGradGradGradGradGradGradGradGrad

                          Input orientation:                          
 ---------------------------------------------------------------------
 Center     Atomic      Atomic             Coordinates (Angstroms)
 Number     Number       Type             X           Y           Z
 ---------------------------------------------------------------------
      1          6           0       -2.447705    0.146605   -0.101016
[...]
    D3       -0.96486   0.00000   0.00000  -0.00068  -0.00068  -0.96554
    D4        2.17968  -0.00000   0.00000  -0.00078  -0.00078   2.17890
    D5        1.06938   0.00000   0.00000  -0.00068  -0.00068   1.06871
    D6       -2.06926  -0.00000   0.00000  -0.00078  -0.00078  -2.07004
    D7        3.13660   0.00000   0.00000   0.00000   0.00000   3.13661
    D8        0.00238   0.00000   0.00000   0.00015   0.00015   0.00253
    D9       -0.00198  -0.00000   0.00000  -0.00010  -0.00010  -0.00209
   D10       -3.13621  -0.00000   0.00000   0.00004   0.00004  -3.13617
   D11       -2.07230   0.00000   0.00000   0.00017   0.00017  -2.07213
   D12        0.00984  -0.00000   0.00000   0.00016   0.00016   0.01000
   D13        2.09181   0.00000   0.00000   0.00017   0.00017   2.09198
   D14        1.06192   0.00000   0.00000   0.00003   0.00003   1.06195
   D15       -3.13912  -0.00000   0.00000   0.00001   0.00001  -3.13910
   D16       -1.05715   0.00000   0.00000   0.00003   0.00003  -1.05712
         Item               Value     Threshold  Converged?
 Maximum Force            0.000006     0.000450     YES
 RMS     Force            0.000002     0.000300     YES
 Maximum Displacement     0.000886     0.001800     YES
 RMS     Displacement     0.000296     0.001200     YES
 Predicted change in Energy=-1.200320D-09
 Optimization completed.
    -- Stationary point found.
                           ----------------------------
                           !   Optimized Parameters   !
                           ! (Angstroms and Degrees)  !
 --------------------------                            --------------------------
 ! Name  Definition              Value          Derivative Info.                !
 --------------------------------------------------------------------------------
 ! R1    R(1,2)                  1.0917         -DE/DX =    0.0                 !
 ! R2    R(1,3)                  1.0915         -DE/DX =    0.0                 !
 ! R3    R(1,4)                  1.0921         -DE/DX =    0.0                 !
 ! R4    R(1,5)                  1.5194         -DE/DX =    0.0                 !
 ! R5    R(5,6)                  1.2234         -DE/DX =    0.0                 !
 ! R6    R(5,7)                  1.3623         -DE/DX =    0.0                 !
 ! R7    R(7,8)                  1.4534         -DE/DX =    0.0                 !
 ! R8    R(7,12)                 1.0069         -DE/DX =    0.0                 !
 ! R9    R(8,9)                  1.0937         -DE/DX =    0.0                 !
 ! R10   R(8,10)                 1.0884         -DE/DX =    0.0                 !
 ! R11   R(8,11)                 1.0937         -DE/DX =    0.0                 !
 ! A1    A(2,1,3)              109.1025         -DE/DX =    0.0                 !
 ! A2    A(2,1,4)              109.0127         -DE/DX =    0.0                 !
 ! A3    A(2,1,5)              113.882          -DE/DX =    0.0                 !
 ! A4    A(3,1,4)              107.4434         -DE/DX =    0.0                 !
 ! A5    A(3,1,5)              108.5694         -DE/DX =    0.0                 !
 ! A6    A(4,1,5)              108.6377         -DE/DX =    0.0                 !
 ! A7    A(1,5,6)              121.5518         -DE/DX =    0.0                 !
 ! A8    A(1,5,7)              115.2777         -DE/DX =    0.0                 !
 ! A9    A(6,5,7)              123.1702         -DE/DX =    0.0                 !
 ! A10   A(5,7,8)              122.9611         -DE/DX =    0.0                 !
 ! A11   A(5,7,12)             118.5274         -DE/DX =    0.0                 !
 ! A12   A(8,7,12)             118.5102         -DE/DX =    0.0                 !
 ! A13   A(7,8,9)              111.1738         -DE/DX =    0.0                 !
 ! A14   A(7,8,10)             107.5169         -DE/DX =    0.0                 !
 ! A15   A(7,8,11)             111.108          -DE/DX =    0.0                 !
 ! A16   A(9,8,10)             109.053          -DE/DX =    0.0                 !
 ! A17   A(9,8,11)             108.865          -DE/DX =    0.0                 !
 ! A18   A(10,8,11)            109.0757         -DE/DX =    0.0                 !
 ! D1    D(2,1,5,6)           -177.0384         -DE/DX =    0.0                 !
 ! D2    D(2,1,5,7)              3.1307         -DE/DX =    0.0                 !
 ! D3    D(3,1,5,6)            -55.2825         -DE/DX =    0.0                 !
 ! D4    D(3,1,5,7)            124.8867         -DE/DX =    0.0                 !
 ! D5    D(4,1,5,6)             61.271          -DE/DX =    0.0                 !
 ! D6    D(4,1,5,7)           -118.5599         -DE/DX =    0.0                 !
 ! D7    D(1,5,7,8)            179.7141         -DE/DX =    0.0                 !
 ! D8    D(1,5,7,12)             0.1364         -DE/DX =    0.0                 !
 ! D9    D(6,5,7,8)             -0.1137         -DE/DX =    0.0                 !
 ! D10   D(6,5,7,12)          -179.6914         -DE/DX =    0.0                 !
 ! D11   D(5,7,8,9)           -118.7342         -DE/DX =    0.0                 !
 ! D12   D(5,7,8,10)             0.564          -DE/DX =    0.0                 !
 ! D13   D(5,7,8,11)           119.8519         -DE/DX =    0.0                 !
 ! D14   D(12,7,8,9)            60.8436         -DE/DX =    0.0                 !
 ! D15   D(12,7,8,10)         -179.8582         -DE/DX =    0.0                 !
 ! D16   D(12,7,8,11)          -60.5703         -DE/DX =    0.0                 !
 --------------------------------------------------------------------------------
 GradGradGradGradGradGradGradGradGradGradGradGradGradGradGradGradGradGrad


 ----------------------------------------------------------------------

 Electric dipole moment (input orientation):
 (Debye = 10**-18 statcoulomb cm , SI units = C m)
                  (au)            (Debye)         (10**-30 SI)
   Tot        0.164346D+01      0.417725D+01      0.139338D+02
   x          0.979070D+00      0.248855D+01      0.830090D+01
   y         -0.130579D+01     -0.331898D+01     -0.110709D+02
   z          0.193107D+00      0.490830D+00      0.163723D+01

 Dipole polarizability, Alpha (input orientation).
 (esu units = cm**3 , SI units = C**2 m**2 J**-1)
 Alpha(0;0):
               (au)            (10**-24 esu)      (10**-40 SI)
   iso        0.487083D+02      0.721782D+01      0.803091D+01
   aniso      0.221390D+02      0.328066D+01      0.365023D+01
   xx         0.594614D+02      0.881127D+01      0.980386D+01
   yx         0.909173D+00      0.134726D+00      0.149902D+00
   yy         0.486318D+02      0.720649D+01      0.801830D+01
   zx        -0.540454D+01     -0.800870D+00     -0.891088D+00
   zy        -0.430458D+01     -0.637873D+00     -0.709729D+00
   zz         0.380316D+02      0.563570D+01      0.627056D+01

 ----------------------------------------------------------------------

 Dipole orientation:
     6         -2.92411964         -1.99331608         -3.00198870
     1         -3.21378065         -1.96853118         -0.95953129
     1         -4.30374165         -0.74644247         -3.89462840
     1         -3.26840762         -3.90230634         -3.70678590
     6         -0.29376412         -1.17620997         -3.81303519
     8          0.28678744         -1.00915690         -6.04453519
     7          1.33879879         -0.66055173         -1.89049752
     6          3.93442930          0.13506953         -2.30704258
     1          5.26938494         -1.21677321         -1.49317116
     1          4.23327633          0.23303014         -4.33959253
     1          4.28336487          1.99778702         -1.48248253
     1          0.72327086         -0.85031526         -0.10013863

 Electric dipole moment (dipole orientation):
 (Debye = 10**-18 statcoulomb cm , SI units = C m)
                  (au)            (Debye)         (10**-30 SI)
   Tot        0.164346D+01      0.417725D+01      0.139338D+02
   x          0.000000D+00      0.000000D+00      0.000000D+00
   y          0.000000D+00      0.000000D+00      0.000000D+00
   z          0.164346D+01      0.417725D+01      0.139338D+02

 Dipole polarizability, Alpha (dipole orientation).
 (esu units = cm**3 , SI units = C**2 m**2 J**-1)
 Alpha(0;0):
               (au)            (10**-24 esu)      (10**-40 SI)
   iso        0.487083D+02      0.721782D+01      0.803091D+01
   aniso      0.221390D+02      0.328066D+01      0.365023D+01
   xx         0.570053D+02      0.844731D+01      0.939890D+01
   yx         0.668126D+01      0.990061D+00      0.110159D+01
   yy         0.376042D+02      0.557237D+01      0.620010D+01
   zx         0.411412D+01      0.609650D+00      0.678327D+00
   zy         0.134299D+01      0.199010D+00      0.221429D+00
   zz         0.515153D+02      0.763379D+01      0.849373D+01

 ----------------------------------------------------------------------
 Unable to Open any file for archive entry.
 1\1\GINC-LOCALHOST\Freq\RB3LYP\6-311G(d,p)\C3H7N1O1\KIMARIYB\03-Aug-20
 23\0\\#N Geom=AllCheck Guess=TCheck SCRF=Check GenChk RB3LYP/6-311G(d,
 p) Freq\\Title Card Required\\0,1\C,-2.4491158975,0.1478337897,-0.1029
 200755\H,-1.904275522,-0.7701385146,0.1258138884\H,-2.9492502569,0.500
 9923426,0.8007534142\H,-3.2235169824,-0.0725257846,-0.8408434367\C,-1.
 5717842818,1.2665413965,-0.6390187377\O,-2.0281759489,2.3733661161,-0.
 8905521418\N,-0.260574982,0.9428583531,-0.8173358964\C,0.7237681247,1.
 8829674097,-1.3269912366\H,1.159412932,1.5287475296,-2.2656157048\H,0.
 2128807354,2.8270938184,-1.5063965777\H,1.527231226,2.0433605059,-0.60
 25417781\H,0.0390255835,0.0084434275,-0.5917543472\\Version=ES64L-G16R
 evC.01\State=1-A\HF=-248.6027351\RMSD=2.846e-09\RMSF=6.759e-06\ZeroPoi
 nt=0.1016572\Thermal=0.1081683\ETot=-248.4945667\HTot=-248.4936226\GTo
 t=-248.5313621\Dipole=0.9790702,-1.3057889,0.1931073\DipoleDeriv=-0.12
 02372,-0.2474102,0.1179432,-0.1883081,-0.0914097,0.0825116,0.0902698,0
 .0874159,0.0188719,-0.0168436,0.1125603,-0.0212938,0.0479148,-0.09989,
 0.0557444,0.0042994,0.0438741,0.0709619,0.0540345,0.0139403,0.0644026,
 0.0234815,0.0311079,-0.0661058,0.0862548,-0.0216007,-0.027136,-0.00405
 44,-0.0360519,-0.0717114,-0.0291627,0.0571257,0.0201829,-0.096608,-0.0
 188617,-0.0014544,1.8834971,-0.2478692,-0.2726918,-0.4963826,1.3181143
 ,-0.2279639,-0.1896038,-0.2802885,0.3680278,-0.9342444,0.1673867,0.053
 6503,0.4667034,-1.2164917,0.1415581,-0.0434015,0.2061777,-0.5012898,-1
 .3406263,0.1174966,0.1475766,-0.0123896,-0.4466867,-0.0046397,0.185800
 2,-0.032157,-0.5059325,0.388881,0.1445756,-0.054989,0.3583921,0.205556
 4,-0.0336787,-0.1210882,0.0122244,0.3722631,-0.038223,-0.0310518,0.087
 6673,-0.0290774,0.0352242,-0.0836112,0.1466992,-0.0485434,-0.1143697,0
 .100075,0.1015416,-0.0327059,-0.016008,-0.0000924,0.0314082,0.0037116,
 0.0062796,0.0886381,-0.1299985,-0.0735905,-0.059312,-0.0901239,0.07136
 44,0.0191061,-0.1127123,-0.0183199,-0.0570592,0.1577398,-0.0215277,0.0
 414637,-0.0350396,0.1360775,0.0654881,0.0463787,0.0637995,0.2884789\Po
 lar=59.4614204,0.9091731,48.6317907,-5.4045363,-4.3045775,38.0315993\Q
 uadrupole=1.0942781,-0.921579,-0.1726992,2.1231505,-0.9990312,-0.29940
 58\PG=C01 [X(C3H7N1O1)]\NImag=0\\0.53145792,-0.06086654,0.52922674,0.0
 1863191,0.01398173,0.52879258,-0.11781242,0.11316238,-0.02705015,0.125
 49021,0.10884889,-0.23196498,0.04670780,-0.12221905,0.24986380,-0.0255
 1878,0.04595459,-0.05839645,0.02906715,-0.05159431,0.05716314,-0.09719
 150,0.04153696,0.10313654,-0.00739647,0.00394992,0.01280503,0.10632019
 ,0.04209228,-0.07548980,-0.07201194,0.01064382,-0.00762277,-0.02241848
 ,-0.04251177,0.07919251,0.10208762,-0.07166788,-0.22918072,-0.00438211
 ,0.00224571,0.00781825,-0.11218766,0.07934189,0.24651698,-0.17641434,-
 0.03789660,-0.13140361,-0.01052204,-0.00368080,-0.00946440,0.01154655,
 0.00304830,0.01027127,0.19201229,-0.03744686,-0.05725420,-0.03586556,0
 .01893592,0.00707965,0.01882796,-0.00773662,-0.00250619,-0.00712865,0.
 04280802,0.05792191,-0.13027491,-0.03516017,-0.16622910,-0.00247557,-0
 .00097231,-0.00390836,-0.01958081,-0.00497339,-0.01815960,0.14065656,0
 .03792591,0.18031388,-0.12389259,-0.04739151,0.02374031,0.01263580,0.0
 2036972,-0.01004392,-0.01255734,-0.01069010,0.00467631,-0.01732726,-0.
 01672876,0.01037621,0.64059454,-0.03494939,-0.12667208,0.02123003,-0.0
 1382000,-0.01553341,0.00619330,0.00774066,0.00890894,-0.00546776,-0.00
 326173,-0.00481144,0.00378942,-0.14393365,0.83075625,0.01929966,0.0233
 0947,-0.09559229,0.00214684,0.00030404,-0.00452180,0.01833001,0.023012
 65,-0.00898162,-0.01415417,-0.01886791,0.00987136,-0.04403462,-0.16028
 554,0.28242604,0.01751436,-0.01177753,0.00359093,-0.00138640,-0.005212
 16,0.00245361,0.00146750,0.00017013,-0.00088452,0.00215415,0.00147790,
 -0.00018768,-0.16864179,0.17206383,-0.03514575,0.20025649,0.00803698,-
 0.04747690,0.01828609,-0.00610960,-0.00550147,0.00366758,0.00090327,0.
 00005464,0.00105519,0.00188001,0.00089404,-0.00124300,0.16371599,-0.55
 587100,0.11508058,-0.23391658,0.63552283,-0.00246304,0.02218079,0.0092
 2939,0.00252749,0.00365073,0.00112952,-0.00295462,-0.00253801,0.002160
 08,0.00156897,0.00282946,-0.00010853,-0.03251495,0.11329475,-0.1086704
 0,0.03852210,-0.13910879,0.07135919,-0.03065302,-0.00205427,0.00942873
 ,-0.00087654,-0.00017929,0.00015091,-0.00185312,-0.00145737,0.00024001
 ,-0.00128806,-0.00064983,0.00102803,-0.30647347,0.01644165,0.05044374,
 -0.04257447,0.06389017,-0.00687140,0.67749352,-0.02648871,0.00780740,0
 .00664552,0.00035819,0.00192096,-0.00082847,-0.00341159,-0.00238194,0.
 00168400,-0.00273130,-0.00172022,0.00073047,0.03976892,-0.13480691,0.0
 1926792,0.07109672,-0.03232799,0.00121964,-0.10770285,0.74051255,0.016
 84354,0.00151510,0.00647643,-0.00005365,-0.00086962,-0.00011436,0.0007
 5253,0.00024103,-0.00035311,0.00202007,0.00134513,-0.00103239,0.043741
 86,0.02406957,-0.06313956,-0.00919733,0.00285883,0.02076595,-0.0987231
 5,-0.18823383,0.14438308,-0.00081943,0.00362370,0.00098599,0.00059988,
 -0.00048942,0.00009294,-0.00066989,-0.00083440,0.00017472,-0.00011768,
 -0.00028470,0.00015627,-0.03217268,-0.02199413,0.01293368,0.00321845,-
 0.00506389,0.00045292,-0.16002772,-0.04785625,0.03688044,0.55074053,0.
 00367687,0.00160354,0.00160094,0.00034003,0.00033951,-0.00020450,-0.00
 016379,0.00000087,-0.00024055,0.00061456,0.00062182,-0.00030862,-0.017
 83648,0.01970061,-0.00376817,0.00398060,-0.00864892,0.00125396,-0.0394
 3649,-0.15688614,0.03919525,-0.05989245,0.53785022,0.00079832,0.001698
 22,0.00812750,-0.00023285,-0.00006217,0.00004931,-0.00115356,-0.000990
 10,0.00037053,0.00119851,0.00082763,-0.00090125,0.01129288,-0.00279031
 ,-0.00597137,-0.00237828,0.00304694,-0.00240862,0.03449462,0.04108131,
 -0.07979399,0.02082072,0.01972567,0.54857453,-0.00092037,-0.00010874,-
 0.00095307,0.00007120,-0.00000551,-0.00000314,0.00002016,0.00004037,0.
 00001866,-0.00030505,-0.00023403,0.00019129,0.00339809,-0.00345198,0.0
 0329756,-0.00093470,0.00122550,-0.00047923,-0.01889184,0.00312183,0.02
 186582,-0.08283649,0.03414753,0.07872160,0.09493175,-0.00083953,-0.000
 27375,-0.00145690,0.00002684,-0.00000019,0.00000906,0.00011862,0.00006
 777,0.00000552,-0.00036010,-0.00023315,0.00015925,0.00343702,-0.004841
 86,0.00263061,0.00032668,0.00306411,-0.00028558,-0.01952628,0.00742345
 ,0.02450996,0.03762808,-0.08140492,-0.08090217,-0.03121528,0.08395131,
 0.00044978,0.00009242,0.00039282,-0.00001362,-0.00000348,-0.00001892,-
 0.00001647,0.00000248,-0.00003387,0.00013584,0.00006842,-0.00009225,-0
 .00434693,0.00243664,-0.00106533,0.00055074,-0.00158040,-0.00003322,0.
 01231591,0.00370116,-0.00549586,0.08101613,-0.07875213,-0.23612507,-0.
 09550287,0.08228097,0.25491918,-0.00004182,0.00091110,-0.00021833,0.00
 033506,0.00036071,-0.00019305,-0.00005043,0.00006461,0.00000327,-0.000
 03206,0.00006369,-0.00002712,0.00170480,-0.00366235,0.00111702,-0.0022
 1490,0.00205770,-0.00053210,0.01240462,-0.02561709,0.00501874,-0.11147
 722,0.11919510,-0.02317015,-0.00497772,0.00791007,-0.00258119,0.117728
 01,0.00000143,-0.00022444,0.00015060,-0.00015726,0.00020288,-0.0000477
 3,-0.00006247,0.00006294,0.00001451,-0.00005524,0.00003642,-0.00002346
 ,0.00457830,-0.00350009,0.00061469,0.00172211,0.00306723,-0.00186117,0
 .00549713,-0.02682154,0.00687309,0.10678512,-0.24966019,0.03830886,0.0
 0461841,-0.00727252,0.00110616,-0.11738697,0.27781341,0.00006155,-0.00
 005474,0.00020396,-0.00002495,-0.00014566,0.00005339,0.00001787,-0.000
 01878,-0.00000650,0.00003802,-0.00003643,0.00001474,-0.00142781,0.0023
 4040,0.00117389,-0.00042780,-0.00191016,-0.00102517,-0.00464177,0.0137
 7952,-0.00403537,-0.01934827,0.03558929,-0.05633226,0.01305080,-0.0250
 7965,0.00661647,0.02079679,-0.04531676,0.05715846,-0.00057096,0.000541
 32,0.00099356,0.00006125,-0.00003395,-0.00002906,-0.00029074,-0.000263
 73,0.00009679,0.00002018,0.00001227,-0.00004912,0.00315741,-0.00511443
 ,-0.00199667,-0.00102430,0.00140324,-0.00004386,-0.02546942,-0.0074738
 8,-0.00711791,-0.17755212,-0.02079844,-0.12477713,0.01018479,0.0018807
 6,0.00755256,-0.00943629,-0.00228965,-0.00998766,0.20079254,-0.0002787
 0,0.00063631,0.00137361,0.00001238,-0.00003018,-0.00000759,-0.00032107
 ,-0.00021900,0.00012623,0.00009855,0.00003319,-0.00008278,0.00405154,-
 0.00603873,-0.00079583,-0.00018985,0.00279142,-0.00171953,-0.02737779,
 -0.00556111,-0.00965042,-0.01856302,-0.05161837,-0.02122428,-0.0082138
 0,-0.00099228,-0.00945702,0.01874316,0.00708172,0.02000405,0.03200124,
 0.05386032,0.00012645,-0.00045610,-0.00087519,-0.00003144,0.00001277,-
 0.00000391,0.00020014,0.00016481,-0.00010252,-0.00006667,-0.00005060,0
 .00004769,0.00057050,0.00280877,0.00019026,-0.00022208,-0.00094868,0.0
 0034037,0.01571329,0.00188916,0.01408523,-0.12893284,-0.02217054,-0.17
 142953,-0.01981219,-0.00212641,-0.01880142,-0.00191282,-0.00078370,-0.
 00321503,0.13510331,0.02200813,0.17941639,-0.00065582,0.00031974,-0.00
 088281,-0.00119955,-0.00170904,0.00068271,0.00065508,-0.00030214,-0.00
 011438,0.00027331,-0.00021701,0.00018685,-0.00042551,0.03394151,-0.012
 23730,-0.00783437,0.00197722,0.00278772,-0.10179047,0.10693601,-0.0120
 3096,0.01111438,-0.02382706,0.00438532,0.00026018,0.00061312,0.0004401
 3,-0.00394205,-0.00325092,0.00189323,0.00012767,0.00003737,-0.00073565
 ,0.10341715,-0.00178673,0.00008216,-0.00064191,-0.00117365,0.00124620,
 0.00044859,-0.00004212,-0.00006798,0.00003178,-0.00046367,-0.00006181,
 0.00015868,0.00065902,-0.00729027,-0.00050252,0.00025816,0.00443200,0.
 00108375,0.11255521,-0.39715851,0.09814590,0.00694135,-0.01189802,0.00
 128041,0.00007570,0.00051203,0.00010478,-0.00263973,-0.00078581,0.0008
 4893,0.00013524,0.00005672,-0.00034761,-0.11451879,0.41093330,-0.00004
 208,-0.00139342,-0.00294892,0.00052284,0.00072649,0.00075017,0.0006510
 0,0.00018784,-0.00004789,-0.00080039,0.00012464,0.00018381,-0.00202984
 ,-0.00761926,-0.00571916,0.00332606,0.00079582,0.00726144,-0.01357891,
 0.09906361,-0.03174606,-0.00523271,0.00807941,-0.00415979,-0.00039523,
 0.00025534,-0.00026252,0.00169894,0.00096490,-0.00060658,0.00025519,-0
 .00057458,0.00034767,0.01562514,-0.10061078,0.03694782\\-0.00000473,0.
 00000693,-0.00000379,-0.00001016,0.00000214,-0.00000600,-0.00000689,0.
 00000726,-0.00001192,-0.00000447,0.00000569,-0.00001411,-0.00000109,0.
 00000843,0.00000377,0.00000181,-0.00000406,-0.00000503,0.00000381,-0.0
 0000203,-0.00000122,0.00000892,-0.00000246,0.00000171,0.00000823,-0.00
 000579,0.00001147,0.00000781,-0.00000361,0.00000681,0.00000293,-0.0000
 0768,0.00001317,-0.00000619,-0.00000483,0.00000513\\\@
 The archive entry for this job was punched.


 KNOWLEDGE IS CHIMERA - FOR BEYOND IT LIES OTHER KNOWLEDGE,
 AND THE INCOMPLETENESS OF WHAT IS KNOWN RENDERS THE KNOWING FALSE.
     -- THE THOMAS COVENANT CHRONICLES
 Job cpu time:       0 days  0 hours  5 minutes 34.3 seconds.
 Elapsed time:       0 days  0 hours  0 minutes 33.1 seconds.
 File lengths (MBytes):  RWF=     46 Int=      0 D2E=      0 Chk=      6 Scr=      1
 Normal termination of Gaussian 16 at Thu Aug  3 16:07:55 2023.
