 Default is to use a total of   8 processors:
                                8 via shared-memory
                                1 via Linda
 Entering Link 1 = d:\tools\G16W\l1.exe PID=     92380.
  
 Copyright (c) 1988,1990,1992,1993,1995,1998,2003,2009,2016,
            Gaussian, Inc.  All Rights Reserved.
  
 This is part of the Gaussian(R) 16 program.  It is based on
 the Gaussian(R) 09 system (copyright 2009, Gaussian, Inc.),
 the Gaussian(R) 03 system (copyright 2003, Gaussian, Inc.),
 the Gaussian(R) 98 system (copyright 1998, Gaussian, Inc.),
 the Gaussian(R) 94 system (copyright 1995, Gaussian, Inc.),
 the Gaussian 92(TM) system (copyright 1992, Gaussian, Inc.),
 the Gaussian 90(TM) system (copyright 1990, Gaussian, Inc.),
 the Gaussian 88(TM) system (copyright 1988, Gaussian, Inc.),
 the Gaussian 86(TM) system (copyright 1986, Carnegie Mellon
 University), and the Gaussian 82(TM) system (copyright 1983,
 Carnegie Mellon University). Gaussian is a federally registered
 trademark of Gaussian, Inc.
  
 This software contains proprietary and confidential information,
 including trade secrets, belonging to Gaussian, Inc.
  
 This software is provided under written license and may be
 used, copied, transmitted, or stored only in accord with that
 written license.
  
 The following legend is applicable only to US Government
 contracts under FAR:
  
                    RESTRICTED RIGHTS LEGEND
  
 Use, reproduction and disclosure by the US Government is
 subject to restrictions as set forth in subparagraphs (a)
 and (c) of the Commercial Computer Software - Restricted
 Rights clause in FAR 52.227-19.
  
 Gaussian, Inc.
 340 Quinnipiac St., Bldg. 40, Wallingford CT 06492
  
  
 ---------------------------------------------------------------
 Warning -- This program may not be used in any manner that
 competes with the business of Gaussian, Inc. or will provide
 assistance to any competitor of Gaussian, Inc.  The licensee
 of this program is prohibited from giving any competitor of
 Gaussian, Inc. access to this program.  By using this program,
 the user acknowledges that Gaussian, Inc. is engaged in the
 business of creating and licensing software in the field of
 computational chemistry and represents and warrants to the
 licensee that it is not a competitor of Gaussian, Inc. and that
 it will not use this program in any manner prohibited above.
 ---------------------------------------------------------------
  

 Cite this work as:
 Gaussian 16, Revision A.03,
 M. J. Frisch, G. W. Trucks, H. B. Schlegel, G. E. Scuseria, 
 M. A. Robb, J. R. Cheeseman, G. Scalmani, V. Barone, 
 G. A. Petersson, H. Nakatsuji, X. Li, M. Caricato, A. V. Marenich, 
 J. Bloino, B. G. Janesko, R. Gomperts, B. Mennucci, H. P. Hratchian, 
 J. V. Ortiz, A. F. Izmaylov, J. L. Sonnenberg, D. Williams-Young, 
 F. Ding, F. Lipparini, F. Egidi, J. Goings, B. Peng, A. Petrone, 
 T. Henderson, D. Ranasinghe, V. G. Zakrzewski, J. Gao, N. Rega, 
 G. Zheng, W. Liang, M. Hada, M. Ehara, K. Toyota, R. Fukuda, 
 J. Hasegawa, M. Ishida, T. Nakajima, Y. Honda, O. Kitao, H. Nakai, 
 T. Vreven, K. Throssell, J. A. Montgomery, Jr., J. E. Peralta, 
 F. Ogliaro, M. J. Bearpark, J. J. Heyd, E. N. Brothers, K. N. Kudin, 
 V. N. Staroverov, T. A. Keith, R. Kobayashi, J. Normand, 
 K. Raghavachari, A. P. Rendell, J. C. Burant, S. S. Iyengar, 
 J. Tomasi, M. Cossi, J. M. Millam, M. Klene, C. Adamo, R. Cammi, 
 J. W. Ochterski, R. L. Martin, K. Morokuma, O. Farkas, 
 J. B. Foresman, and D. J. Fox, Gaussian, Inc., Wallingford CT, 2016.
 
 ******************************************
 Gaussian 16:  EM64W-G16RevA.03 17-Dec-2016
                12-Jul-2023 
 ******************************************
 %mem=16000MB
 %nprocshared=8
 Will use up to    8 processors via shared memory.
 -----------------------
 # opt freq b3lyp/6-31g*
 -----------------------
 1/18=20,19=15,26=3,38=1/1,3;
 2/9=110,12=2,17=6,18=5,40=1/2;
 3/5=1,6=6,7=1,11=2,25=1,30=1,71=1,74=-5/1,2,3;
 4//1;
 5/5=2,38=5/2;
 6/7=2,8=2,9=2,10=2,28=1/1;
 7//1,2,3,16;
 1/18=20,19=15,26=3/3(2);
 2/9=110/2;
 99//99;
 2/9=110/2;
 3/5=1,6=6,7=1,11=2,25=1,30=1,71=1,74=-5/1,2,3;
 4/5=5,16=3,69=1/1;
 5/5=2,38=5/2;
 7//1,2,3,16;
 1/18=20,19=15,26=3/3(-5);
 2/9=110/2;
 6/7=2,8=2,9=2,10=2,19=2,28=1/1;
 99/9=1/99;
 -------------------
 Title Card Required
 -------------------
 Symbolic Z-matrix:
 Charge =  0 Multiplicity = 1
 N                    -6.30157   0.02947  -0.00001 
 H                    -5.96825  -0.69762  -0.6002 
 H                    -5.96823  -0.12677   0.92976 
 H                    -5.96823   0.9128   -0.32959 
 B                    -7.88157   0.02949   0.00001 
 F                    -8.36825  -1.26017   0.4812 
 F                    -8.36825   0.2576   -1.35746 
 F                    -8.36822   1.09104   0.87629 
 

 GradGradGradGradGradGradGradGradGradGradGradGradGradGradGradGradGradGrad
 Berny optimization.
 Initialization pass.
                           ----------------------------
                           !    Initial Parameters    !
                           ! (Angstroms and Degrees)  !
 --------------------------                            --------------------------
 ! Name  Definition              Value          Derivative Info.                !
 --------------------------------------------------------------------------------
 ! R1    R(1,2)                  1.0            estimate D2E/DX2                !
 ! R2    R(1,3)                  1.0            estimate D2E/DX2                !
 ! R3    R(1,4)                  1.0            estimate D2E/DX2                !
 ! R4    R(1,5)                  1.58           estimate D2E/DX2                !
 ! R5    R(5,6)                  1.46           estimate D2E/DX2                !
 ! R6    R(5,7)                  1.46           estimate D2E/DX2                !
 ! R7    R(5,8)                  1.46           estimate D2E/DX2                !
 ! A1    A(2,1,3)              109.4712         estimate D2E/DX2                !
 ! A2    A(2,1,4)              109.4712         estimate D2E/DX2                !
 ! A3    A(2,1,5)              109.4712         estimate D2E/DX2                !
 ! A4    A(3,1,4)              109.4712         estimate D2E/DX2                !
 ! A5    A(3,1,5)              109.4712         estimate D2E/DX2                !
 ! A6    A(4,1,5)              109.4712         estimate D2E/DX2                !
 ! A7    A(1,5,6)              109.4712         estimate D2E/DX2                !
 ! A8    A(1,5,7)              109.4712         estimate D2E/DX2                !
 ! A9    A(1,5,8)              109.4712         estimate D2E/DX2                !
 ! A10   A(6,5,7)              109.4712         estimate D2E/DX2                !
 ! A11   A(6,5,8)              109.4712         estimate D2E/DX2                !
 ! A12   A(7,5,8)              109.4712         estimate D2E/DX2                !
 ! D1    D(2,1,5,6)             60.0            estimate D2E/DX2                !
 ! D2    D(2,1,5,7)            -60.0            estimate D2E/DX2                !
 ! D3    D(2,1,5,8)            180.0            estimate D2E/DX2                !
 ! D4    D(3,1,5,6)            -60.0            estimate D2E/DX2                !
 ! D5    D(3,1,5,7)            180.0            estimate D2E/DX2                !
 ! D6    D(3,1,5,8)             60.0            estimate D2E/DX2                !
 ! D7    D(4,1,5,6)            180.0            estimate D2E/DX2                !
 ! D8    D(4,1,5,7)             60.0            estimate D2E/DX2                !
 ! D9    D(4,1,5,8)            -60.0            estimate D2E/DX2                !
 --------------------------------------------------------------------------------
 Trust Radius=3.00D-01 FncErr=1.00D-07 GrdErr=1.00D-06 EigMax=2.50D+02 EigMin=1.00D-04
 Number of steps in this run=     38 maximum allowed number of steps=    100.
 GradGradGradGradGradGradGradGradGradGradGradGradGradGradGradGradGradGrad

                          Input orientation:                          
 ---------------------------------------------------------------------
 Center     Atomic      Atomic             Coordinates (Angstroms)
 Number     Number       Type             X           Y           Z
 ---------------------------------------------------------------------
      1          7           0       -6.301572    0.029472   -0.000006
      2          1           0       -5.968249   -0.697618   -0.600202
      3          1           0       -5.968233   -0.126770    0.929765
      4          1           0       -5.968233    0.912796   -0.329588
      5          5           0       -7.881572    0.029487    0.000005
      6          9           0       -8.368247   -1.260166    0.481195
      7          9           0       -8.368246    0.257600   -1.357460
      8          9           0       -8.368223    1.091039    0.876292
 ---------------------------------------------------------------------
                    Distance matrix (angstroms):
                    1          2          3          4          5
     1  N    0.000000
     2  H    1.000000   0.000000
     3  H    1.000000   1.632993   0.000000
     4  H    1.000000   1.632993   1.632993   0.000000
     5  B    1.580000   2.133010   2.133010   2.133010   0.000000
     6  F    2.483116   2.691815   2.691815   3.337544   1.460000
     7  F    2.483116   2.691815   3.337544   2.691815   1.460000
     8  F    2.483116   3.337544   2.691815   2.691815   1.460000
                    6          7          8
     6  F    0.000000
     7  F    2.384170   0.000000
     8  F    2.384170   2.384170   0.000000
 Stoichiometry    BF3H3N
 Framework group  C3V[C3(BN),3SGV(FH)]
 Deg. of freedom     5
 Full point group                 C3V     NOp   6
 Largest Abelian subgroup         CS      NOp   2
 Largest concise Abelian subgroup CS      NOp   2
                         Standard orientation:                         
 ---------------------------------------------------------------------
 Center     Atomic      Atomic             Coordinates (Angstroms)
 Number     Number       Type             X           Y           Z
 ---------------------------------------------------------------------
      1          7           0        0.000000    0.000000    1.492857
      2          1           0       -0.816497    0.471405    1.826190
      3          1           0        0.816497    0.471405    1.826190
      4          1           0        0.000000   -0.942809    1.826190
      5          5           0        0.000000    0.000000   -0.087143
      6          9           0        0.000000    1.376501   -0.573810
      7          9           0       -1.192085   -0.688251   -0.573810
      8          9           0        1.192085   -0.688251   -0.573810
 ---------------------------------------------------------------------
 Rotational constants (GHZ):           4.5661473           4.3997973           4.3997973
 Standard basis: 6-31G(d) (6D, 7F)
 There are    52 symmetry adapted cartesian basis functions of A'  symmetry.
 There are    29 symmetry adapted cartesian basis functions of A"  symmetry.
 There are    52 symmetry adapted basis functions of A'  symmetry.
 There are    29 symmetry adapted basis functions of A"  symmetry.
    81 basis functions,   152 primitive gaussians,    81 cartesian basis functions
    21 alpha electrons       21 beta electrons
       nuclear repulsion energy       185.5686768510 Hartrees.
 NAtoms=    8 NActive=    8 NUniq=    4 SFac= 4.00D+00 NAtFMM=   60 NAOKFM=F Big=F
 Integral buffers will be    131072 words long.
 Raffenetti 2 integral format.
 Two-electron integral symmetry is turned on.
 One-electron integrals computed using PRISM.
 NBasis=    81 RedAO= T EigKep=  3.19D-03  NBF=    52    29
 NBsUse=    81 1.00D-06 EigRej= -1.00D+00 NBFU=    52    29
 ExpMin= 1.27D-01 ExpMax= 7.00D+03 ExpMxC= 1.05D+03 IAcc=3 IRadAn=         5 AccDes= 0.00D+00
 Harris functional with IExCor=  402 and IRadAn=       5 diagonalized for initial guess.
 HarFok:  IExCor=  402 AccDes= 0.00D+00 IRadAn=         5 IDoV= 1 UseB2=F ITyADJ=14
 ICtDFT=  3500011 ScaDFX=  1.000000  1.000000  1.000000  1.000000
 FoFCou: FMM=F IPFlag=           0 FMFlag=      100000 FMFlg1=           0
         NFxFlg=           0 DoJE=T BraDBF=F KetDBF=T FulRan=T
         wScrn=  0.000000 ICntrl=       500 IOpCl=  0 I1Cent=   200000004 NGrid=           0
         NMat0=    1 NMatS0=      1 NMatT0=    0 NMatD0=    1 NMtDS0=    0 NMtDT0=    0
 Petite list used in FoFCou.
 Initial guess orbital symmetries:
       Occupied  (A1) (E) (E) (A1) (A1) (A1) (E) (E) (A1) (A1)
                 (E) (E) (A1) (E) (E) (E) (E) (E) (E) (A1) (A2)
       Virtual   (A1) (E) (E) (E) (E) (A1) (A1) (A1) (E) (E) (A1)
                 (E) (E) (A1) (E) (E) (A1) (E) (E) (E) (E) (A1)
                 (A2) (E) (E) (E) (E) (A1) (A1) (E) (E) (A1) (E)
                 (E) (E) (E) (A2) (E) (E) (E) (E) (A1) (A2) (A1)
                 (E) (E) (A1) (E) (E) (A1) (E) (E) (E) (E) (A1)
                 (A1) (A1) (E) (E) (A1)
 The electronic state of the initial guess is 1-A1.
 Keep R1 ints in memory in symmetry-blocked form, NReq=12760689.
 Requested convergence on RMS density matrix=1.00D-08 within 128 cycles.
 Requested convergence on MAX density matrix=1.00D-06.
 Requested convergence on             energy=1.00D-06.
 No special actions if energy rises.
 Integral accuracy reduced to 1.0D-05 until final iterations.
 Initial convergence to 1.0D-05 achieved.  Increase integral accuracy.
 SCF Done:  E(RB3LYP) =  -381.114722709     A.U. after   11 cycles
            NFock= 11  Conv=0.40D-08     -V/T= 2.0080

 **********************************************************************

            Population analysis using the SCF density.

 **********************************************************************

 Orbital symmetries:
       Occupied  (A1) (E) (E) (A1) (A1) (A1) (E) (E) (A1) (E) (E)
                 (A1) (A1) (E) (E) (E) (E) (A1) (E) (E) (A2)
       Virtual   (A1) (E) (E) (E) (E) (A1) (A1) (A1) (E) (E) (A1)
                 (E) (E) (A1) (E) (E) (A1) (E) (E) (E) (E) (A1)
                 (E) (E) (A2) (A1) (E) (E) (A1) (E) (E) (A1) (E)
                 (E) (E) (E) (A2) (E) (E) (A1) (E) (E) (A2) (A1)
                 (E) (E) (A1) (E) (E) (A1) (E) (E) (E) (E) (A1)
                 (A1) (A1) (E) (E) (A1)
 The electronic state is 1-A1.
 Alpha  occ. eigenvalues --  -24.62817 -24.62817 -24.62817 -14.45719  -6.85830
 Alpha  occ. eigenvalues --   -1.13714  -1.09979  -1.09979  -1.00990  -0.61034
 Alpha  occ. eigenvalues --   -0.61034  -0.56448  -0.47161  -0.43621  -0.43621
 Alpha  occ. eigenvalues --   -0.35887  -0.35887  -0.35466  -0.33538  -0.33538
 Alpha  occ. eigenvalues --   -0.31915
 Alpha virt. eigenvalues --    0.00909   0.07796   0.07796   0.22204   0.22204
 Alpha virt. eigenvalues --    0.25259   0.27628   0.45227   0.48036   0.48036
 Alpha virt. eigenvalues --    0.52534   0.66826   0.66826   0.70498   0.80524
 Alpha virt. eigenvalues --    0.80524   0.86272   1.11163   1.11163   1.16109
 Alpha virt. eigenvalues --    1.16109   1.19569   1.34152   1.34152   1.36217
 Alpha virt. eigenvalues --    1.37197   1.41751   1.41751   1.47069   1.57588
 Alpha virt. eigenvalues --    1.57588   1.62999   1.72200   1.72200   1.83829
 Alpha virt. eigenvalues --    1.83829   1.88817   1.90231   1.90231   1.95269
 Alpha virt. eigenvalues --    1.95570   1.95570   1.99042   2.12264   2.25194
 Alpha virt. eigenvalues --    2.25194   2.26450   2.30205   2.30205   2.54583
 Alpha virt. eigenvalues --    2.65951   2.65951   2.94261   2.94261   2.99043
 Alpha virt. eigenvalues --    3.62932   3.74294   4.25898   4.25898   5.02202
          Condensed to atoms (all electrons):
               1          2          3          4          5          6
     1  N    6.896136   0.303829   0.303829   0.303829   0.076906  -0.028124
     2  H    0.303829   0.328933  -0.016376  -0.016376   0.002374   0.000111
     3  H    0.303829  -0.016376   0.328933  -0.016376   0.002374   0.000111
     4  H    0.303829  -0.016376  -0.016376   0.328933   0.002374   0.001186
     5  B    0.076906   0.002374   0.002374   0.002374   3.192957   0.342835
     6  F   -0.028124   0.000111   0.000111   0.001186   0.342835   9.086553
     7  F   -0.028124   0.000111   0.001186   0.000111   0.342835  -0.020840
     8  F   -0.028124   0.001186   0.000111   0.000111   0.342835  -0.020840
               7          8
     1  N   -0.028124  -0.028124
     2  H    0.000111   0.001186
     3  H    0.001186   0.000111
     4  H    0.000111   0.000111
     5  B    0.342835   0.342835
     6  F   -0.020840  -0.020840
     7  F    9.086553  -0.020840
     8  F   -0.020840   9.086553
 Mulliken charges:
               1
     1  N   -0.800159
     2  H    0.396209
     3  H    0.396209
     4  H    0.396209
     5  B    0.694509
     6  F   -0.360992
     7  F   -0.360992
     8  F   -0.360992
 Sum of Mulliken charges =   0.00000
 Mulliken charges with hydrogens summed into heavy atoms:
               1
     1  N    0.388467
     5  B    0.694509
     6  F   -0.360992
     7  F   -0.360992
     8  F   -0.360992
 Electronic spatial extent (au):  <R**2>=            371.1799
 Charge=              0.0000 electrons
 Dipole moment (field-independent basis, Debye):
    X=              0.0000    Y=              0.0000    Z=              7.4744  Tot=              7.4744
 Quadrupole moment (field-independent basis, Debye-Ang):
   XX=            -28.5797   YY=            -28.5797   ZZ=            -17.6876
   XY=              0.0000   XZ=              0.0000   YZ=              0.0000
 Traceless Quadrupole moment (field-independent basis, Debye-Ang):
   XX=             -3.6307   YY=             -3.6307   ZZ=              7.2614
   XY=              0.0000   XZ=              0.0000   YZ=              0.0000
 Octapole moment (field-independent basis, Debye-Ang**2):
  XXX=              0.0000  YYY=             -4.0293  ZZZ=             13.2558  XYY=              0.0000
  XXY=              4.0293  XXZ=              4.5586  XZZ=              0.0000  YZZ=              0.0000
  YYZ=              4.5586  XYZ=              0.0000
 Hexadecapole moment (field-independent basis, Debye-Ang**3):
 XXXX=           -108.9080 YYYY=           -108.9080 ZZZZ=           -115.6767 XXXY=              0.0000
 XXXZ=              0.0000 YYYX=              0.0000 YYYZ=             -1.1280 ZZZX=              0.0000
 ZZZY=              0.0000 XXYY=            -36.3027 XXZZ=            -35.7064 YYZZ=            -35.7064
 XXYZ=              1.1280 YYXZ=              0.0000 ZZXY=              0.0000
 N-N= 1.855686768510D+02 E-N=-1.276695990751D+03  KE= 3.780977637686D+02
 Symmetry A'   KE= 2.683665063714D+02
 Symmetry A"   KE= 1.097312573972D+02
 Calling FoFJK, ICntrl=      2127 FMM=F ISym2X=1 I1Cent= 0 IOpClX= 0 NMat=1 NMatS=1 NMatT=0.
 ***** Axes restored to original set *****
 -------------------------------------------------------------------
 Center     Atomic                   Forces (Hartrees/Bohr)
 Number     Number              X              Y              Z
 -------------------------------------------------------------------
      1        7          -0.016419279    0.000000148    0.000000120
      2        1           0.007631154   -0.013934495   -0.011502595
      3        1           0.007631466   -0.002994347    0.017818782
      4        1           0.007631469    0.016928636   -0.006316353
      5        5          -0.097587718    0.000000878    0.000000711
      6        9           0.030371221    0.040049504   -0.014943261
      7        9           0.030371213   -0.007084110    0.042155422
      8        9           0.030370475   -0.032966213   -0.027212826
 -------------------------------------------------------------------
 Cartesian Forces:  Max     0.097587718 RMS     0.028281415

 GradGradGradGradGradGradGradGradGradGradGradGradGradGradGradGradGradGrad
 Berny optimization.
 FormGI is forming the generalized inverse of G from B-inverse, IUseBI=4.
 Internal  Forces:  Max     0.050425617 RMS     0.019991343
 Search for a local minimum.
 Step number   1 out of a maximum of   38
 All quantities printed in internal units (Hartrees-Bohrs-Radians)
 Mixed Optimization -- RFO/linear search
 Second derivative matrix not updated -- first step.
 ITU=  0
     Eigenvalues ---    0.00230   0.05715   0.05715   0.08846   0.08846
     Eigenvalues ---    0.16000   0.16000   0.16000   0.25000   0.25000
     Eigenvalues ---    0.25000   0.25250   0.36964   0.36964   0.36964
     Eigenvalues ---    0.47688   0.47688   0.47688
 RFO step:  Lambda=-2.99834002D-02 EMin= 2.30000000D-03
 Linear search not attempted -- first point.
 Iteration  1 RMS(Cart)=  0.05485952 RMS(Int)=  0.00277437
 Iteration  2 RMS(Cart)=  0.00240726 RMS(Int)=  0.00141989
 Iteration  3 RMS(Cart)=  0.00000276 RMS(Int)=  0.00141989
 Iteration  4 RMS(Cart)=  0.00000001 RMS(Int)=  0.00141989
 ClnCor:  largest displacement from symmetrization is 5.34D-09 for atom     7.
 Variable       Old X    -DE/DX   Delta X   Delta X   Delta X     New X
                                 (Linear)    (Quad)   (Total)
    R1        1.88973   0.01958   0.00000   0.03863   0.03863   1.92835
    R2        1.88973   0.01958   0.00000   0.03863   0.03863   1.92835
    R3        1.88973   0.01958   0.00000   0.03863   0.03863   1.92835
    R4        2.98577   0.00647   0.00000   0.02292   0.02292   3.00869
    R5        2.75900  -0.05043   0.00000  -0.12618  -0.12618   2.63282
    R6        2.75900  -0.05043   0.00000  -0.12618  -0.12618   2.63282
    R7        2.75900  -0.05043   0.00000  -0.12618  -0.12618   2.63282
    A1        1.91063  -0.00111   0.00000  -0.00583  -0.00585   1.90479
    A2        1.91063  -0.00111   0.00000  -0.00583  -0.00585   1.90479
    A3        1.91063   0.00111   0.00000   0.00583   0.00581   1.91644
    A4        1.91063  -0.00111   0.00000  -0.00583  -0.00585   1.90479
    A5        1.91063   0.00111   0.00000   0.00583   0.00581   1.91644
    A6        1.91063   0.00111   0.00000   0.00583   0.00581   1.91644
    A7        1.91063  -0.01984   0.00000  -0.07088  -0.07365   1.83699
    A8        1.91063  -0.01984   0.00000  -0.07088  -0.07365   1.83699
    A9        1.91063  -0.01984   0.00000  -0.07088  -0.07365   1.83699
   A10        1.91063   0.01984   0.00000   0.07088   0.06754   1.97817
   A11        1.91063   0.01984   0.00000   0.07088   0.06754   1.97817
   A12        1.91063   0.01984   0.00000   0.07088   0.06754   1.97817
    D1        1.04720   0.00000   0.00000   0.00000   0.00000   1.04720
    D2       -1.04720   0.00000   0.00000   0.00000   0.00000  -1.04720
    D3        3.14159   0.00000   0.00000   0.00000   0.00000   3.14159
    D4       -1.04720   0.00000   0.00000   0.00000   0.00000  -1.04720
    D5        3.14159   0.00000   0.00000   0.00000   0.00000   3.14159
    D6        1.04720   0.00000   0.00000   0.00000   0.00000   1.04720
    D7        3.14159   0.00000   0.00000   0.00000   0.00000   3.14159
    D8        1.04720   0.00000   0.00000   0.00000   0.00000   1.04720
    D9       -1.04720   0.00000   0.00000   0.00000   0.00000  -1.04720
         Item               Value     Threshold  Converged?
 Maximum Force            0.050426     0.000450     NO 
 RMS     Force            0.019991     0.000300     NO 
 Maximum Displacement     0.121679     0.001800     NO 
 RMS     Displacement     0.055805     0.001200     NO 
 Predicted change in Energy=-1.622700D-02
 GradGradGradGradGradGradGradGradGradGradGradGradGradGradGradGradGradGrad

                          Input orientation:                          
 ---------------------------------------------------------------------
 Center     Atomic      Atomic             Coordinates (Angstroms)
 Number     Number       Type             X           Y           Z
 ---------------------------------------------------------------------
      1          7           0       -6.345219    0.029473   -0.000006
      2          1           0       -5.999498   -0.710943   -0.611202
      3          1           0       -5.999481   -0.129633    0.946805
      4          1           0       -5.999481    0.928985   -0.335628
      5          5           0       -7.937348    0.029487    0.000006
      6          9           0       -8.303857   -1.229864    0.469888
      7          9           0       -8.303857    0.252240   -1.325564
      8          9           0       -8.303833    1.066095    0.855701
 ---------------------------------------------------------------------
                    Distance matrix (angstroms):
                    1          2          3          4          5
     1  N    0.000000
     2  H    1.020441   0.000000
     3  H    1.020441   1.662921   0.000000
     4  H    1.020441   1.662921   1.662921   0.000000
     5  B    1.592129   2.162655   2.162655   2.162655   0.000000
     6  F    2.375498   2.597711   2.597711   3.258778   1.393227
     7  F    2.375498   2.597711   3.258778   2.597711   1.393227
     8  F    2.375498   3.258778   2.597711   2.597711   1.393227
                    6          7          8
     6  F    0.000000
     7  F    2.328149   0.000000
     8  F    2.328149   2.328149   0.000000
 Stoichiometry    BF3H3N
 Framework group  C3V[C3(BN),3SGV(FH)]
 Deg. of freedom     5
 Full point group                 C3V     NOp   6
 Largest Abelian subgroup         CS      NOp   2
 Largest concise Abelian subgroup CS      NOp   2
                         Standard orientation:                         
 ---------------------------------------------------------------------
 Center     Atomic      Atomic             Coordinates (Angstroms)
 Number     Number       Type             X           Y           Z
 ---------------------------------------------------------------------
      1          7           0        0.000000    0.000000    1.423963
      2          1           0       -0.831461    0.480044    1.769695
      3          1           0        0.831461    0.480044    1.769695
      4          1           0        0.000000   -0.960088    1.769695
      5          5           0        0.000000    0.000000   -0.168166
      6          9           0        0.000000    1.344158   -0.534667
      7          9           0       -1.164075   -0.672079   -0.534667
      8          9           0        1.164075   -0.672079   -0.534667
 ---------------------------------------------------------------------
 Rotational constants (GHZ):           4.7783831           4.7334772           4.7334772
 Standard basis: 6-31G(d) (6D, 7F)
 There are    52 symmetry adapted cartesian basis functions of A'  symmetry.
 There are    29 symmetry adapted cartesian basis functions of A"  symmetry.
 There are    52 symmetry adapted basis functions of A'  symmetry.
 There are    29 symmetry adapted basis functions of A"  symmetry.
    81 basis functions,   152 primitive gaussians,    81 cartesian basis functions
    21 alpha electrons       21 beta electrons
       nuclear repulsion energy       191.1438997533 Hartrees.
 NAtoms=    8 NActive=    8 NUniq=    4 SFac= 4.00D+00 NAtFMM=   60 NAOKFM=F Big=F
 Integral buffers will be    131072 words long.
 Raffenetti 2 integral format.
 Two-electron integral symmetry is turned on.
 One-electron integrals computed using PRISM.
 NBasis=    81 RedAO= T EigKep=  2.77D-03  NBF=    52    29
 NBsUse=    81 1.00D-06 EigRej= -1.00D+00 NBFU=    52    29
 Initial guess from the checkpoint file:  "D:\tools\G16W\Scratch\Gau-92380.chk"
 B after Tr=     0.000000    0.000000    0.000000
         Rot=    1.000000    0.000000    0.000000    0.000000 Ang=   0.00 deg.
 Initial guess orbital symmetries:
       Occupied  (A1) (E) (E) (A1) (A1) (A1) (E) (E) (A1) (E) (E)
                 (A1) (A1) (E) (E) (E) (E) (A1) (E) (E) (A2)
       Virtual   (A1) (E) (E) (E) (E) (A1) (A1) (A1) (E) (E) (A1)
                 (E) (E) (A1) (E) (E) (A1) (E) (E) (E) (E) (A1)
                 (E) (E) (A2) (A1) (E) (E) (A1) (E) (E) (A1) (E)
                 (E) (E) (E) (A2) (E) (E) (A1) (E) (E) (A2) (A1)
                 (E) (E) (A1) (E) (E) (A1) (E) (E) (E) (E) (A1)
                 (A1) (A1) (E) (E) (A1)
 ExpMin= 1.27D-01 ExpMax= 7.00D+03 ExpMxC= 1.05D+03 IAcc=2 IRadAn=         4 AccDes= 0.00D+00
 Harris functional with IExCor=  402 and IRadAn=       4 diagonalized for initial guess.
 HarFok:  IExCor=  402 AccDes= 0.00D+00 IRadAn=         4 IDoV= 1 UseB2=F ITyADJ=14
 ICtDFT=  3500011 ScaDFX=  1.000000  1.000000  1.000000  1.000000
 FoFCou: FMM=F IPFlag=           0 FMFlag=      100000 FMFlg1=           0
         NFxFlg=           0 DoJE=T BraDBF=F KetDBF=T FulRan=T
         wScrn=  0.000000 ICntrl=       500 IOpCl=  0 I1Cent=   200000004 NGrid=           0
         NMat0=    1 NMatS0=      1 NMatT0=    0 NMatD0=    1 NMtDS0=    0 NMtDT0=    0
 Petite list used in FoFCou.
 Keep R1 ints in memory in symmetry-blocked form, NReq=12760689.
 Requested convergence on RMS density matrix=1.00D-08 within 128 cycles.
 Requested convergence on MAX density matrix=1.00D-06.
 Requested convergence on             energy=1.00D-06.
 No special actions if energy rises.
 Integral accuracy reduced to 1.0D-05 until final iterations.
 Initial convergence to 1.0D-05 achieved.  Increase integral accuracy.
 SCF Done:  E(RB3LYP) =  -381.133401177     A.U. after   10 cycles
            NFock= 10  Conv=0.78D-08     -V/T= 2.0073
 Calling FoFJK, ICntrl=      2127 FMM=F ISym2X=1 I1Cent= 0 IOpClX= 0 NMat=1 NMatS=1 NMatT=0.
 ***** Axes restored to original set *****
 -------------------------------------------------------------------
 Center     Atomic                   Forces (Hartrees/Bohr)
 Number     Number              X              Y              Z
 -------------------------------------------------------------------
      1        7           0.015943315   -0.000000143   -0.000000116
      2        1           0.001847656    0.000119391    0.000098554
      3        1           0.001847654    0.000025642   -0.000152707
      4        1           0.001847654   -0.000145083    0.000054112
      5        5          -0.035705456    0.000000321    0.000000260
      6        9           0.004739784    0.009258273   -0.003454420
      7        9           0.004739782   -0.001637615    0.009745095
      8        9           0.004739612   -0.007620787   -0.006290778
 -------------------------------------------------------------------
 Cartesian Forces:  Max     0.035705456 RMS     0.008896921

 GradGradGradGradGradGradGradGradGradGradGradGradGradGradGradGradGradGrad
 Berny optimization.
 Using GEDIIS/GDIIS optimizer.
 FormGI is forming the generalized inverse of G from B-inverse, IUseBI=4.
 Internal  Forces:  Max     0.021486278 RMS     0.005595487
 Search for a local minimum.
 Step number   2 out of a maximum of   38
 All quantities printed in internal units (Hartrees-Bohrs-Radians)
 Mixed Optimization -- RFO/linear search
 Update second derivatives using D2CorX and points    1    2
 DE= -1.87D-02 DEPred=-1.62D-02 R= 1.15D+00
 TightC=F SS=  1.41D+00  RLast= 2.88D-01 DXNew= 5.0454D-01 8.6391D-01
 Trust test= 1.15D+00 RLast= 2.88D-01 DXMaxT set to 5.05D-01
 ITU=  1  0
 Use linear search instead of GDIIS.
     Eigenvalues ---    0.00230   0.05653   0.05653   0.10058   0.10058
     Eigenvalues ---    0.15802   0.16000   0.16000   0.20236   0.25000
     Eigenvalues ---    0.25000   0.27465   0.36245   0.36964   0.36964
     Eigenvalues ---    0.47688   0.47688   0.48956
 RFO step:  Lambda=-2.55433309D-03 EMin= 2.30000000D-03
 Quartic linear search produced a step of  0.19773.
 Iteration  1 RMS(Cart)=  0.02523825 RMS(Int)=  0.00042242
 Iteration  2 RMS(Cart)=  0.00013419 RMS(Int)=  0.00040287
 Iteration  3 RMS(Cart)=  0.00000012 RMS(Int)=  0.00040287
 ClnCor:  largest displacement from symmetrization is 2.78D-09 for atom     7.
 Variable       Old X    -DE/DX   Delta X   Delta X   Delta X     New X
                                 (Linear)    (Quad)   (Total)
    R1        1.92835   0.00048   0.00764  -0.00457   0.00307   1.93142
    R2        1.92835   0.00048   0.00764  -0.00457   0.00307   1.93142
    R3        1.92835   0.00048   0.00764  -0.00457   0.00307   1.93142
    R4        3.00869   0.02149   0.00453   0.09662   0.10115   3.10984
    R5        2.63282  -0.01078  -0.02495  -0.01437  -0.03932   2.59350
    R6        2.63282  -0.01078  -0.02495  -0.01437  -0.03932   2.59350
    R7        2.63282  -0.01078  -0.02495  -0.01437  -0.03932   2.59350
    A1        1.90479  -0.00173  -0.00116  -0.01138  -0.01262   1.89217
    A2        1.90479  -0.00173  -0.00116  -0.01138  -0.01262   1.89217
    A3        1.91644   0.00171   0.00115   0.01124   0.01231   1.92875
    A4        1.90479  -0.00173  -0.00116  -0.01138  -0.01262   1.89217
    A5        1.91644   0.00171   0.00115   0.01124   0.01231   1.92875
    A6        1.91644   0.00171   0.00115   0.01124   0.01231   1.92875
    A7        1.83699  -0.00308  -0.01456  -0.00035  -0.01567   1.82132
    A8        1.83699  -0.00308  -0.01456  -0.00035  -0.01567   1.82132
    A9        1.83699  -0.00308  -0.01456  -0.00035  -0.01567   1.82132
   A10        1.97817   0.00255   0.01335   0.00029   0.01268   1.99085
   A11        1.97817   0.00255   0.01335   0.00029   0.01268   1.99085
   A12        1.97817   0.00255   0.01335   0.00029   0.01268   1.99085
    D1        1.04720   0.00000   0.00000   0.00000   0.00000   1.04720
    D2       -1.04720   0.00000   0.00000   0.00000   0.00000  -1.04720
    D3        3.14159   0.00000   0.00000   0.00000   0.00000   3.14159
    D4       -1.04720   0.00000   0.00000   0.00000   0.00000  -1.04720
    D5        3.14159   0.00000   0.00000   0.00000   0.00000   3.14159
    D6        1.04720   0.00000   0.00000   0.00000   0.00000   1.04720
    D7        3.14159   0.00000   0.00000   0.00000   0.00000   3.14159
    D8        1.04720   0.00000   0.00000   0.00000   0.00000   1.04720
    D9       -1.04720   0.00000   0.00000   0.00000   0.00000  -1.04720
         Item               Value     Threshold  Converged?
 Maximum Force            0.021486     0.000450     NO 
 RMS     Force            0.005595     0.000300     NO 
 Maximum Displacement     0.077947     0.001800     NO 
 RMS     Displacement     0.025275     0.001200     NO 
 Predicted change in Energy=-2.089436D-03
 GradGradGradGradGradGradGradGradGradGradGradGradGradGradGradGradGradGrad

                          Input orientation:                          
 ---------------------------------------------------------------------
 Center     Atomic      Atomic             Coordinates (Angstroms)
 Number     Number       Type             X           Y           Z
 ---------------------------------------------------------------------
      1          7           0       -6.332938    0.029473   -0.000006
      2          1           0       -5.974857   -0.708778   -0.609414
      3          1           0       -5.974840   -0.129168    0.944035
      4          1           0       -5.974840    0.926354   -0.334647
      5          5           0       -7.978596    0.029488    0.000006
      6          9           0       -8.318842   -1.216204    0.464792
      7          9           0       -8.318842    0.249824   -1.311186
      8          9           0       -8.318819    1.054852    0.846420
 ---------------------------------------------------------------------
                    Distance matrix (angstroms):
                    1          2          3          4          5
     1  N    0.000000
     2  H    1.022064   0.000000
     3  H    1.022064   1.658057   0.000000
     4  H    1.022064   1.658057   1.658057   0.000000
     5  B    1.645658   2.220675   2.220675   2.220675   0.000000
     6  F    2.389887   2.627864   2.627864   3.274752   1.372421
     7  F    2.389887   2.627864   3.274752   2.627864   1.372421
     8  F    2.389887   3.274752   2.627864   2.627864   1.372421
                    6          7          8
     6  F    0.000000
     7  F    2.302897   0.000000
     8  F    2.302897   2.302897   0.000000
 Stoichiometry    BF3H3N
 Framework group  C3V[C3(BN),3SGV(FH)]
 Deg. of freedom     5
 Full point group                 C3V     NOp   6
 Largest Abelian subgroup         CS      NOp   2
 Largest concise Abelian subgroup CS      NOp   2
                         Standard orientation:                         
 ---------------------------------------------------------------------
 Center     Atomic      Atomic             Coordinates (Angstroms)
 Number     Number       Type             X           Y           Z
 ---------------------------------------------------------------------
      1          7           0        0.000000    0.000000    1.446981
      2          1           0       -0.829028    0.478640    1.805074
      3          1           0        0.829028    0.478640    1.805074
      4          1           0        0.000000   -0.957280    1.805074
      5          5           0        0.000000    0.000000   -0.198677
      6          9           0        0.000000    1.329578   -0.538915
      7          9           0       -1.151449   -0.664789   -0.538915
      8          9           0        1.151449   -0.664789   -0.538915
 ---------------------------------------------------------------------
 Rotational constants (GHZ):           4.8816833           4.7093489           4.7093489
 Standard basis: 6-31G(d) (6D, 7F)
 There are    52 symmetry adapted cartesian basis functions of A'  symmetry.
 There are    29 symmetry adapted cartesian basis functions of A"  symmetry.
 There are    52 symmetry adapted basis functions of A'  symmetry.
 There are    29 symmetry adapted basis functions of A"  symmetry.
    81 basis functions,   152 primitive gaussians,    81 cartesian basis functions
    21 alpha electrons       21 beta electrons
       nuclear repulsion energy       191.6370229375 Hartrees.
 NAtoms=    8 NActive=    8 NUniq=    4 SFac= 4.00D+00 NAtFMM=   60 NAOKFM=F Big=F
 Integral buffers will be    131072 words long.
 Raffenetti 2 integral format.
 Two-electron integral symmetry is turned on.
 One-electron integrals computed using PRISM.
 NBasis=    81 RedAO= T EigKep=  2.72D-03  NBF=    52    29
 NBsUse=    81 1.00D-06 EigRej= -1.00D+00 NBFU=    52    29
 Initial guess from the checkpoint file:  "D:\tools\G16W\Scratch\Gau-92380.chk"
 B after Tr=     0.000000    0.000000    0.000000
         Rot=    1.000000    0.000000    0.000000    0.000000 Ang=   0.00 deg.
 Initial guess orbital symmetries:
       Occupied  (A1) (E) (E) (A1) (A1) (A1) (E) (E) (A1) (E) (E)
                 (A1) (A1) (E) (E) (E) (E) (A1) (E) (E) (A2)
       Virtual   (A1) (E) (E) (A1) (E) (E) (A1) (A1) (E) (E) (A1)
                 (E) (E) (A1) (E) (E) (A1) (E) (E) (A1) (E) (E)
                 (A1) (E) (E) (A2) (E) (E) (A1) (E) (E) (A1) (E)
                 (E) (E) (E) (A2) (E) (E) (E) (E) (A2) (A1) (A1)
                 (E) (E) (A1) (E) (E) (A1) (E) (E) (E) (E) (A1)
                 (A1) (A1) (E) (E) (A1)
 ExpMin= 1.27D-01 ExpMax= 7.00D+03 ExpMxC= 1.05D+03 IAcc=2 IRadAn=         4 AccDes= 0.00D+00
 Harris functional with IExCor=  402 and IRadAn=       4 diagonalized for initial guess.
 HarFok:  IExCor=  402 AccDes= 0.00D+00 IRadAn=         4 IDoV= 1 UseB2=F ITyADJ=14
 ICtDFT=  3500011 ScaDFX=  1.000000  1.000000  1.000000  1.000000
 FoFCou: FMM=F IPFlag=           0 FMFlag=      100000 FMFlg1=           0
         NFxFlg=           0 DoJE=T BraDBF=F KetDBF=T FulRan=T
         wScrn=  0.000000 ICntrl=       500 IOpCl=  0 I1Cent=   200000004 NGrid=           0
         NMat0=    1 NMatS0=      1 NMatT0=    0 NMatD0=    1 NMtDS0=    0 NMtDT0=    0
 Petite list used in FoFCou.
 Keep R1 ints in memory in symmetry-blocked form, NReq=12760689.
 Requested convergence on RMS density matrix=1.00D-08 within 128 cycles.
 Requested convergence on MAX density matrix=1.00D-06.
 Requested convergence on             energy=1.00D-06.
 No special actions if energy rises.
 Integral accuracy reduced to 1.0D-05 until final iterations.
 Initial convergence to 1.0D-05 achieved.  Increase integral accuracy.
 SCF Done:  E(RB3LYP) =  -381.135806098     A.U. after    9 cycles
            NFock=  9  Conv=0.54D-08     -V/T= 2.0072
 Calling FoFJK, ICntrl=      2127 FMM=F ISym2X=1 I1Cent= 0 IOpClX= 0 NMat=1 NMatS=1 NMatT=0.
 ***** Axes restored to original set *****
 -------------------------------------------------------------------
 Center     Atomic                   Forces (Hartrees/Bohr)
 Number     Number              X              Y              Z
 -------------------------------------------------------------------
      1        7           0.011297486   -0.000000102   -0.000000082
      2        1          -0.000033311    0.000786246    0.000649027
      3        1          -0.000033329    0.000168951   -0.001005422
      4        1          -0.000033329   -0.000955196    0.000356395
      5        5          -0.013055811    0.000000117    0.000000095
      6        9           0.000619418   -0.002136395    0.000797107
      7        9           0.000619418    0.000377870   -0.002248728
      8        9           0.000619458    0.001758508    0.001451607
 -------------------------------------------------------------------
 Cartesian Forces:  Max     0.013055811 RMS     0.003639819

 GradGradGradGradGradGradGradGradGradGradGradGradGradGradGradGradGradGrad
 Berny optimization.
 Using GEDIIS/GDIIS optimizer.
 FormGI is forming the generalized inverse of G from B-inverse, IUseBI=4.
 Internal  Forces:  Max     0.011197517 RMS     0.002377904
 Search for a local minimum.
 Step number   3 out of a maximum of   38
 All quantities printed in internal units (Hartrees-Bohrs-Radians)
 Mixed Optimization -- RFO/linear search
 Update second derivatives using D2CorX and points    1    2    3
 DE= -2.40D-03 DEPred=-2.09D-03 R= 1.15D+00
 TightC=F SS=  1.41D+00  RLast= 1.31D-01 DXNew= 8.4853D-01 3.9172D-01
 Trust test= 1.15D+00 RLast= 1.31D-01 DXMaxT set to 5.05D-01
 ITU=  1  1  0
 Use linear search instead of GDIIS.
     Eigenvalues ---    0.00230   0.05523   0.05523   0.10306   0.10306
     Eigenvalues ---    0.12868   0.16000   0.16000   0.16445   0.25000
     Eigenvalues ---    0.25000   0.27159   0.36964   0.36964   0.45212
     Eigenvalues ---    0.47688   0.47688   0.53233
 RFO step:  Lambda=-5.86782301D-04 EMin= 2.30000000D-03
 Quartic linear search produced a step of  0.41389.
 Iteration  1 RMS(Cart)=  0.01610017 RMS(Int)=  0.00017563
 Iteration  2 RMS(Cart)=  0.00013801 RMS(Int)=  0.00012506
 Iteration  3 RMS(Cart)=  0.00000005 RMS(Int)=  0.00012506
 ClnCor:  largest displacement from symmetrization is 1.53D-08 for atom     3.
 Variable       Old X    -DE/DX   Delta X   Delta X   Delta X     New X
                                 (Linear)    (Quad)   (Total)
    R1        1.93142  -0.00097   0.00127  -0.00153  -0.00026   1.93116
    R2        1.93142  -0.00097   0.00127  -0.00153  -0.00026   1.93116
    R3        1.93142  -0.00097   0.00127  -0.00153  -0.00026   1.93116
    R4        3.10984   0.01120   0.04187   0.03645   0.07832   3.18816
    R5        2.59350   0.00206  -0.01627   0.01114  -0.00513   2.58837
    R6        2.59350   0.00206  -0.01627   0.01114  -0.00513   2.58837
    R7        2.59350   0.00206  -0.01627   0.01114  -0.00513   2.58837
    A1        1.89217  -0.00031  -0.00522   0.00008  -0.00519   1.88698
    A2        1.89217  -0.00031  -0.00522   0.00008  -0.00519   1.88698
    A3        1.92875   0.00030   0.00509  -0.00008   0.00497   1.93373
    A4        1.89217  -0.00031  -0.00522   0.00008  -0.00519   1.88698
    A5        1.92875   0.00030   0.00509  -0.00008   0.00497   1.93373
    A6        1.92875   0.00030   0.00509  -0.00008   0.00497   1.93373
    A7        1.82132  -0.00186  -0.00648  -0.00958  -0.01629   1.80503
    A8        1.82132  -0.00186  -0.00648  -0.00958  -0.01629   1.80503
    A9        1.82132  -0.00186  -0.00648  -0.00958  -0.01629   1.80503
   A10        1.99085   0.00147   0.00525   0.00756   0.01250   2.00335
   A11        1.99085   0.00147   0.00525   0.00756   0.01250   2.00335
   A12        1.99085   0.00147   0.00525   0.00756   0.01250   2.00335
    D1        1.04720   0.00000   0.00000   0.00000   0.00000   1.04720
    D2       -1.04720   0.00000   0.00000   0.00000   0.00000  -1.04720
    D3       -3.14159   0.00000   0.00000   0.00000   0.00000  -3.14159
    D4       -1.04720   0.00000   0.00000   0.00000   0.00000  -1.04720
    D5       -3.14159   0.00000   0.00000   0.00000   0.00000   3.14159
    D6        1.04720   0.00000   0.00000   0.00000   0.00000   1.04720
    D7        3.14159   0.00000   0.00000   0.00000   0.00000   3.14159
    D8        1.04720   0.00000   0.00000   0.00000   0.00000   1.04720
    D9       -1.04720   0.00000   0.00000   0.00000   0.00000  -1.04720
         Item               Value     Threshold  Converged?
 Maximum Force            0.011198     0.000450     NO 
 RMS     Force            0.002378     0.000300     NO 
 Maximum Displacement     0.058320     0.001800     NO 
 RMS     Displacement     0.016041     0.001200     NO 
 Predicted change in Energy=-4.721451D-04
 GradGradGradGradGradGradGradGradGradGradGradGradGradGradGradGradGradGrad

                          Input orientation:                          
 ---------------------------------------------------------------------
 Center     Atomic      Atomic             Coordinates (Angstroms)
 Number     Number       Type             X           Y           Z
 ---------------------------------------------------------------------
      1          7           0       -6.322356    0.029473   -0.000006
      2          1           0       -5.959566   -0.707297   -0.608192
      3          1           0       -5.959549   -0.128850    0.942142
      4          1           0       -5.959549    0.924555   -0.333976
      5          5           0       -8.009457    0.029488    0.000006
      6          9           0       -8.327374   -1.218757    0.465744
      7          9           0       -8.327373    0.250276   -1.313874
      8          9           0       -8.327350    1.056954    0.848155
 ---------------------------------------------------------------------
                    Distance matrix (angstroms):
                    1          2          3          4          5
     1  N    0.000000
     2  H    1.021928   0.000000
     3  H    1.021928   1.654732   0.000000
     4  H    1.021928   1.654732   1.654732   0.000000
     5  B    1.687101   2.261595   2.261595   2.261595   0.000000
     6  F    2.407301   2.649801   2.649801   3.292406   1.369707
     7  F    2.407301   2.649801   3.292406   2.649801   1.369707
     8  F    2.407301   3.292406   2.649801   2.649801   1.369707
                    6          7          8
     6  F    0.000000
     7  F    2.307617   0.000000
     8  F    2.307617   2.307617   0.000000
 Stoichiometry    BF3H3N
 Framework group  C3V[C3(BN),3SGV(FH)]
 Deg. of freedom     5
 Full point group                 C3V     NOp   6
 Largest Abelian subgroup         CS      NOp   2
 Largest concise Abelian subgroup CS      NOp   2
                         Standard orientation:                         
 ---------------------------------------------------------------------
 Center     Atomic      Atomic             Coordinates (Angstroms)
 Number     Number       Type             X           Y           Z
 ---------------------------------------------------------------------
      1          7           0        0.000000    0.000000    1.463866
      2          1           0       -0.827366    0.477680    1.826667
      3          1           0        0.827366    0.477680    1.826667
      4          1           0        0.000000   -0.955360    1.826667
      5          5           0        0.000000    0.000000   -0.223235
      6          9           0        0.000000    1.332303   -0.541144
      7          9           0       -1.153809   -0.666152   -0.541144
      8          9           0        1.153809   -0.666152   -0.541144
 ---------------------------------------------------------------------
 Rotational constants (GHZ):           4.8627841           4.6503480           4.6503480
 Standard basis: 6-31G(d) (6D, 7F)
 There are    52 symmetry adapted cartesian basis functions of A'  symmetry.
 There are    29 symmetry adapted cartesian basis functions of A"  symmetry.
 There are    52 symmetry adapted basis functions of A'  symmetry.
 There are    29 symmetry adapted basis functions of A"  symmetry.
    81 basis functions,   152 primitive gaussians,    81 cartesian basis functions
    21 alpha electrons       21 beta electrons
       nuclear repulsion energy       190.8720300603 Hartrees.
 NAtoms=    8 NActive=    8 NUniq=    4 SFac= 4.00D+00 NAtFMM=   60 NAOKFM=F Big=F
 Integral buffers will be    131072 words long.
 Raffenetti 2 integral format.
 Two-electron integral symmetry is turned on.
 One-electron integrals computed using PRISM.
 NBasis=    81 RedAO= T EigKep=  2.73D-03  NBF=    52    29
 NBsUse=    81 1.00D-06 EigRej= -1.00D+00 NBFU=    52    29
 Initial guess from the checkpoint file:  "D:\tools\G16W\Scratch\Gau-92380.chk"
 B after Tr=     0.000000    0.000000    0.000000
         Rot=    1.000000    0.000000    0.000000    0.000000 Ang=   0.00 deg.
 Initial guess orbital symmetries:
       Occupied  (A1) (E) (E) (A1) (A1) (A1) (E) (E) (A1) (E) (E)
                 (A1) (A1) (E) (E) (E) (E) (E) (E) (A1) (A2)
       Virtual   (A1) (E) (E) (A1) (E) (E) (A1) (A1) (E) (E) (A1)
                 (E) (E) (A1) (E) (E) (A1) (E) (E) (A1) (E) (E)
                 (A1) (E) (E) (A2) (E) (E) (A1) (A1) (E) (E) (E)
                 (E) (E) (E) (A2) (E) (E) (E) (E) (A1) (A2) (A1)
                 (A1) (E) (E) (E) (E) (A1) (E) (E) (E) (E) (A1)
                 (A1) (A1) (E) (E) (A1)
 ExpMin= 1.27D-01 ExpMax= 7.00D+03 ExpMxC= 1.05D+03 IAcc=2 IRadAn=         4 AccDes= 0.00D+00
 Harris functional with IExCor=  402 and IRadAn=       4 diagonalized for initial guess.
 HarFok:  IExCor=  402 AccDes= 0.00D+00 IRadAn=         4 IDoV= 1 UseB2=F ITyADJ=14
 ICtDFT=  3500011 ScaDFX=  1.000000  1.000000  1.000000  1.000000
 FoFCou: FMM=F IPFlag=           0 FMFlag=      100000 FMFlg1=           0
         NFxFlg=           0 DoJE=T BraDBF=F KetDBF=T FulRan=T
         wScrn=  0.000000 ICntrl=       500 IOpCl=  0 I1Cent=   200000004 NGrid=           0
         NMat0=    1 NMatS0=      1 NMatT0=    0 NMatD0=    1 NMtDS0=    0 NMtDT0=    0
 Petite list used in FoFCou.
 Keep R1 ints in memory in symmetry-blocked form, NReq=12760689.
 Requested convergence on RMS density matrix=1.00D-08 within 128 cycles.
 Requested convergence on MAX density matrix=1.00D-06.
 Requested convergence on             energy=1.00D-06.
 No special actions if energy rises.
 Integral accuracy reduced to 1.0D-05 until final iterations.
 Initial convergence to 1.0D-05 achieved.  Increase integral accuracy.
 SCF Done:  E(RB3LYP) =  -381.136418781     A.U. after    9 cycles
            NFock=  9  Conv=0.84D-08     -V/T= 2.0073
 Calling FoFJK, ICntrl=      2127 FMM=F ISym2X=1 I1Cent= 0 IOpClX= 0 NMat=1 NMatS=1 NMatT=0.
 ***** Axes restored to original set *****
 -------------------------------------------------------------------
 Center     Atomic                   Forces (Hartrees/Bohr)
 Number     Number              X              Y              Z
 -------------------------------------------------------------------
      1        7           0.006404508   -0.000000058   -0.000000047
      2        1          -0.000653048    0.000617458    0.000509697
      3        1          -0.000653062    0.000132686   -0.000789571
      4        1          -0.000653062   -0.000750127    0.000279888
      5        5          -0.002036116    0.000000018    0.000000015
      6        9          -0.000803080   -0.001032995    0.000385431
      7        9          -0.000803080    0.000182720   -0.001087313
      8        9          -0.000803061    0.000850296    0.000701899
 -------------------------------------------------------------------
 Cartesian Forces:  Max     0.006404508 RMS     0.001499274

 GradGradGradGradGradGradGradGradGradGradGradGradGradGradGradGradGradGrad
 Berny optimization.
 Using GEDIIS/GDIIS optimizer.
 FormGI is forming the generalized inverse of G from B-inverse, IUseBI=4.
 Internal  Forces:  Max     0.004445337 RMS     0.001061140
 Search for a local minimum.
 Step number   4 out of a maximum of   38
 All quantities printed in internal units (Hartrees-Bohrs-Radians)
 Mixed Optimization -- RFO/linear search
 Update second derivatives using D2CorX and points    1    2    3    4
 DE= -6.13D-04 DEPred=-4.72D-04 R= 1.30D+00
 TightC=F SS=  1.41D+00  RLast= 8.74D-02 DXNew= 8.4853D-01 2.6209D-01
 Trust test= 1.30D+00 RLast= 8.74D-02 DXMaxT set to 5.05D-01
 ITU=  1  1  1  0
 Use linear search instead of GDIIS.
     Eigenvalues ---    0.00230   0.05470   0.05470   0.09060   0.10557
     Eigenvalues ---    0.10557   0.16000   0.16000   0.16329   0.25000
     Eigenvalues ---    0.25000   0.29159   0.36964   0.36964   0.42177
     Eigenvalues ---    0.47688   0.47688   0.49375
 RFO step:  Lambda=-9.32535994D-05 EMin= 2.30000000D-03
 Quartic linear search produced a step of  0.40181.
 Iteration  1 RMS(Cart)=  0.01065343 RMS(Int)=  0.00003766
 Iteration  2 RMS(Cart)=  0.00000052 RMS(Int)=  0.00003765
 ClnCor:  largest displacement from symmetrization is 3.11D-08 for atom     4.
 Variable       Old X    -DE/DX   Delta X   Delta X   Delta X     New X
                                 (Linear)    (Quad)   (Total)
    R1        1.93116  -0.00098  -0.00010  -0.00163  -0.00173   1.92944
    R2        1.93116  -0.00098  -0.00010  -0.00163  -0.00173   1.92944
    R3        1.93116  -0.00098  -0.00010  -0.00163  -0.00173   1.92944
    R4        3.18816   0.00445   0.03147   0.01204   0.04350   3.23166
    R5        2.58837   0.00126  -0.00206   0.00106  -0.00100   2.58737
    R6        2.58837   0.00126  -0.00206   0.00106  -0.00100   2.58737
    R7        2.58837   0.00126  -0.00206   0.00106  -0.00100   2.58737
    A1        1.88698   0.00031  -0.00208   0.00303   0.00094   1.88793
    A2        1.88698   0.00031  -0.00208   0.00303   0.00094   1.88793
    A3        1.93373  -0.00030   0.00200  -0.00289  -0.00090   1.93283
    A4        1.88698   0.00031  -0.00208   0.00303   0.00094   1.88793
    A5        1.93373  -0.00030   0.00200  -0.00289  -0.00090   1.93283
    A6        1.93373  -0.00030   0.00200  -0.00289  -0.00090   1.93283
    A7        1.80503   0.00087  -0.00654   0.00562  -0.00099   1.80404
    A8        1.80503   0.00087  -0.00654   0.00562  -0.00099   1.80404
    A9        1.80503   0.00087  -0.00654   0.00562  -0.00099   1.80404
   A10        2.00335  -0.00065   0.00502  -0.00419   0.00074   2.00409
   A11        2.00335  -0.00065   0.00502  -0.00419   0.00074   2.00409
   A12        2.00335  -0.00065   0.00502  -0.00419   0.00074   2.00409
    D1        1.04720   0.00000   0.00000   0.00000   0.00000   1.04720
    D2       -1.04720   0.00000   0.00000   0.00000   0.00000  -1.04720
    D3        3.14159   0.00000   0.00000   0.00000   0.00000   3.14159
    D4       -1.04720   0.00000   0.00000   0.00000   0.00000  -1.04720
    D5        3.14159   0.00000   0.00000   0.00000   0.00000   3.14159
    D6        1.04720   0.00000   0.00000   0.00000   0.00000   1.04720
    D7        3.14159   0.00000   0.00000   0.00000   0.00000   3.14159
    D8        1.04720   0.00000   0.00000   0.00000   0.00000   1.04720
    D9       -1.04720   0.00000   0.00000   0.00000   0.00000  -1.04720
         Item               Value     Threshold  Converged?
 Maximum Force            0.004445     0.000450     NO 
 RMS     Force            0.001061     0.000300     NO 
 Maximum Displacement     0.021934     0.001800     NO 
 RMS     Displacement     0.010653     0.001200     NO 
 Predicted change in Energy=-8.531918D-05
 GradGradGradGradGradGradGradGradGradGradGradGradGradGradGradGradGradGrad

                          Input orientation:                          
 ---------------------------------------------------------------------
 Center     Atomic      Atomic             Coordinates (Angstroms)
 Number     Number       Type             X           Y           Z
 ---------------------------------------------------------------------
      1          7           0       -6.310941    0.029473   -0.000006
      2          1           0       -5.949336   -0.706890   -0.607856
      3          1           0       -5.949320   -0.128762    0.941620
      4          1           0       -5.949319    0.924059   -0.333791
      5          5           0       -8.021064    0.029488    0.000006
      6          9           0       -8.337539   -1.218567    0.465674
      7          9           0       -8.337539    0.250242   -1.313674
      8          9           0       -8.337516    1.056797    0.848026
 ---------------------------------------------------------------------
                    Distance matrix (angstroms):
                    1          2          3          4          5
     1  N    0.000000
     2  H    1.021013   0.000000
     3  H    1.021013   1.653816   0.000000
     4  H    1.021013   1.653816   1.653816   0.000000
     5  B    1.710123   2.281185   2.281185   2.281185   0.000000
     6  F    2.425192   2.667919   2.667919   3.306597   1.369176
     7  F    2.425192   2.667919   3.306597   2.667919   1.369176
     8  F    2.425192   3.306597   2.667919   2.667919   1.369176
                    6          7          8
     6  F    0.000000
     7  F    2.307266   0.000000
     8  F    2.307266   2.307266   0.000000
 Stoichiometry    BF3H3N
 Framework group  C3V[C3(BN),3SGV(FH)]
 Deg. of freedom     5
 Full point group                 C3V     NOp   6
 Largest Abelian subgroup         CS      NOp   2
 Largest concise Abelian subgroup CS      NOp   2
                         Standard orientation:                         
 ---------------------------------------------------------------------
 Center     Atomic      Atomic             Coordinates (Angstroms)
 Number     Number       Type             X           Y           Z
 ---------------------------------------------------------------------
      1          7           0        0.000000    0.000000    1.480564
      2          1           0       -0.826908    0.477415    1.842180
      3          1           0        0.826908    0.477415    1.842180
      4          1           0        0.000000   -0.954831    1.842180
      5          5           0        0.000000    0.000000   -0.229559
      6          9           0        0.000000    1.332101   -0.546026
      7          9           0       -1.153633   -0.666050   -0.546026
      8          9           0        1.153633   -0.666050   -0.546026
 ---------------------------------------------------------------------
 Rotational constants (GHZ):           4.8643687           4.6009792           4.6009792
 Standard basis: 6-31G(d) (6D, 7F)
 There are    52 symmetry adapted cartesian basis functions of A'  symmetry.
 There are    29 symmetry adapted cartesian basis functions of A"  symmetry.
 There are    52 symmetry adapted basis functions of A'  symmetry.
 There are    29 symmetry adapted basis functions of A"  symmetry.
    81 basis functions,   152 primitive gaussians,    81 cartesian basis functions
    21 alpha electrons       21 beta electrons
       nuclear repulsion energy       190.3347384217 Hartrees.
 NAtoms=    8 NActive=    8 NUniq=    4 SFac= 4.00D+00 NAtFMM=   60 NAOKFM=F Big=F
 Integral buffers will be    131072 words long.
 Raffenetti 2 integral format.
 Two-electron integral symmetry is turned on.
 One-electron integrals computed using PRISM.
 NBasis=    81 RedAO= T EigKep=  2.76D-03  NBF=    52    29
 NBsUse=    81 1.00D-06 EigRej= -1.00D+00 NBFU=    52    29
 Initial guess from the checkpoint file:  "D:\tools\G16W\Scratch\Gau-92380.chk"
 B after Tr=     0.000000    0.000000    0.000000
         Rot=    1.000000    0.000000    0.000000    0.000000 Ang=   0.00 deg.
 Initial guess orbital symmetries:
       Occupied  (A1) (E) (E) (A1) (A1) (A1) (E) (E) (A1) (E) (E)
                 (A1) (A1) (E) (E) (E) (E) (E) (E) (A1) (A2)
       Virtual   (A1) (E) (E) (A1) (E) (E) (A1) (A1) (E) (E) (A1)
                 (E) (E) (A1) (E) (E) (A1) (E) (E) (A1) (E) (E)
                 (A1) (E) (E) (A2) (E) (E) (A1) (A1) (E) (E) (E)
                 (E) (E) (E) (A2) (E) (E) (E) (E) (A1) (A2) (A1)
                 (A1) (E) (E) (E) (E) (A1) (E) (E) (E) (E) (A1)
                 (A1) (A1) (E) (E) (A1)
 ExpMin= 1.27D-01 ExpMax= 7.00D+03 ExpMxC= 1.05D+03 IAcc=2 IRadAn=         4 AccDes= 0.00D+00
 Harris functional with IExCor=  402 and IRadAn=       4 diagonalized for initial guess.
 HarFok:  IExCor=  402 AccDes= 0.00D+00 IRadAn=         4 IDoV= 1 UseB2=F ITyADJ=14
 ICtDFT=  3500011 ScaDFX=  1.000000  1.000000  1.000000  1.000000
 FoFCou: FMM=F IPFlag=           0 FMFlag=      100000 FMFlg1=           0
         NFxFlg=           0 DoJE=T BraDBF=F KetDBF=T FulRan=T
         wScrn=  0.000000 ICntrl=       500 IOpCl=  0 I1Cent=   200000004 NGrid=           0
         NMat0=    1 NMatS0=      1 NMatT0=    0 NMatD0=    1 NMtDS0=    0 NMtDT0=    0
 Petite list used in FoFCou.
 Keep R1 ints in memory in symmetry-blocked form, NReq=12760689.
 Requested convergence on RMS density matrix=1.00D-08 within 128 cycles.
 Requested convergence on MAX density matrix=1.00D-06.
 Requested convergence on             energy=1.00D-06.
 No special actions if energy rises.
 Integral accuracy reduced to 1.0D-05 until final iterations.
 Initial convergence to 1.0D-05 achieved.  Increase integral accuracy.
 SCF Done:  E(RB3LYP) =  -381.136516841     A.U. after    9 cycles
            NFock=  9  Conv=0.42D-08     -V/T= 2.0073
 Calling FoFJK, ICntrl=      2127 FMM=F ISym2X=1 I1Cent= 0 IOpClX= 0 NMat=1 NMatS=1 NMatT=0.
 ***** Axes restored to original set *****
 -------------------------------------------------------------------
 Center     Atomic                   Forces (Hartrees/Bohr)
 Number     Number              X              Y              Z
 -------------------------------------------------------------------
      1        7           0.001424340   -0.000000013   -0.000000010
      2        1          -0.000449655    0.000182296    0.000150481
      3        1          -0.000449660    0.000039176   -0.000233105
      4        1          -0.000449660   -0.000221460    0.000082634
      5        5          -0.000575543    0.000000005    0.000000004
      6        9           0.000166724   -0.000279505    0.000104285
      7        9           0.000166724    0.000049436   -0.000294202
      8        9           0.000166729    0.000230065    0.000189913
 -------------------------------------------------------------------
 Cartesian Forces:  Max     0.001424340 RMS     0.000381039

 GradGradGradGradGradGradGradGradGradGradGradGradGradGradGradGradGradGrad
 Berny optimization.
 Using GEDIIS/GDIIS optimizer.
 FormGI is forming the generalized inverse of G from B-inverse, IUseBI=4.
 Internal  Forces:  Max     0.000385247 RMS     0.000262269
 Search for a local minimum.
 Step number   5 out of a maximum of   38
 All quantities printed in internal units (Hartrees-Bohrs-Radians)
 Mixed Optimization -- En-DIIS/RFO-DIIS
 Update second derivatives using D2CorX and points    1    2    3    4    5
 DE= -9.81D-05 DEPred=-8.53D-05 R= 1.15D+00
 TightC=F SS=  1.41D+00  RLast= 4.38D-02 DXNew= 8.4853D-01 1.3126D-01
 Trust test= 1.15D+00 RLast= 4.38D-02 DXMaxT set to 5.05D-01
 ITU=  1  1  1  1  0
 Use linear search instead of GDIIS.
     Eigenvalues ---    0.00230   0.05480   0.05480   0.06820   0.10572
     Eigenvalues ---    0.10572   0.16000   0.16000   0.16193   0.25000
     Eigenvalues ---    0.25000   0.31344   0.36964   0.36964   0.39338
     Eigenvalues ---    0.47688   0.47688   0.47956
 RFO step:  Lambda=-8.20365787D-06 EMin= 2.30000000D-03
 Quartic linear search produced a step of  0.04691.
 Iteration  1 RMS(Cart)=  0.00123838 RMS(Int)=  0.00000250
 Iteration  2 RMS(Cart)=  0.00000257 RMS(Int)=  0.00000143
 Iteration  3 RMS(Cart)=  0.00000000 RMS(Int)=  0.00000143
 ClnCor:  largest displacement from symmetrization is 8.83D-09 for atom     3.
 Variable       Old X    -DE/DX   Delta X   Delta X   Delta X     New X
                                 (Linear)    (Quad)   (Total)
    R1        1.92944  -0.00038  -0.00008  -0.00085  -0.00093   1.92851
    R2        1.92944  -0.00038  -0.00008  -0.00085  -0.00093   1.92851
    R3        1.92944  -0.00038  -0.00008  -0.00085  -0.00093   1.92851
    R4        3.23166   0.00008   0.00204   0.00175   0.00379   3.23545
    R5        2.58737   0.00025  -0.00005   0.00034   0.00029   2.58766
    R6        2.58737   0.00025  -0.00005   0.00034   0.00029   2.58766
    R7        2.58737   0.00025  -0.00005   0.00034   0.00029   2.58766
    A1        1.88793   0.00032   0.00004   0.00200   0.00204   1.88997
    A2        1.88793   0.00032   0.00004   0.00200   0.00204   1.88997
    A3        1.93283  -0.00031  -0.00004  -0.00191  -0.00196   1.93087
    A4        1.88793   0.00032   0.00004   0.00200   0.00204   1.88997
    A5        1.93283  -0.00031  -0.00004  -0.00191  -0.00196   1.93087
    A6        1.93283  -0.00031  -0.00004  -0.00191  -0.00196   1.93087
    A7        1.80404  -0.00039  -0.00005  -0.00172  -0.00177   1.80228
    A8        1.80404  -0.00039  -0.00005  -0.00172  -0.00177   1.80228
    A9        1.80404  -0.00039  -0.00005  -0.00172  -0.00177   1.80228
   A10        2.00409   0.00029   0.00003   0.00128   0.00131   2.00540
   A11        2.00409   0.00029   0.00003   0.00128   0.00131   2.00540
   A12        2.00409   0.00029   0.00003   0.00128   0.00131   2.00540
    D1        1.04720   0.00000   0.00000   0.00000   0.00000   1.04720
    D2       -1.04720   0.00000   0.00000   0.00000   0.00000  -1.04720
    D3        3.14159   0.00000   0.00000   0.00000   0.00000   3.14159
    D4       -1.04720   0.00000   0.00000   0.00000   0.00000  -1.04720
    D5       -3.14159   0.00000   0.00000   0.00000   0.00000  -3.14159
    D6        1.04720   0.00000   0.00000   0.00000   0.00000   1.04720
    D7        3.14159   0.00000   0.00000   0.00000   0.00000   3.14159
    D8        1.04720   0.00000   0.00000   0.00000   0.00000   1.04720
    D9       -1.04720   0.00000   0.00000   0.00000   0.00000  -1.04720
         Item               Value     Threshold  Converged?
 Maximum Force            0.000385     0.000450     YES
 RMS     Force            0.000262     0.000300     YES
 Maximum Displacement     0.002292     0.001800     NO 
 RMS     Displacement     0.001240     0.001200     NO 
 Predicted change in Energy=-4.243879D-06
 GradGradGradGradGradGradGradGradGradGradGradGradGradGradGradGradGradGrad

                          Input orientation:                          
 ---------------------------------------------------------------------
 Center     Atomic      Atomic             Coordinates (Angstroms)
 Number     Number       Type             X           Y           Z
 ---------------------------------------------------------------------
      1          7           0       -6.310041    0.029473   -0.000006
      2          1           0       -5.950480   -0.707079   -0.608012
      3          1           0       -5.950464   -0.128803    0.941862
      4          1           0       -5.950464    0.924290   -0.333877
      5          5           0       -8.022170    0.029488    0.000006
      6          9           0       -8.336326   -1.219229    0.465921
      7          9           0       -8.336326    0.250359   -1.314371
      8          9           0       -8.336303    1.057342    0.848476
 ---------------------------------------------------------------------
                    Distance matrix (angstroms):
                    1          2          3          4          5
     1  N    0.000000
     2  H    1.020521   0.000000
     3  H    1.020521   1.654241   0.000000
     4  H    1.020521   1.654241   1.654241   0.000000
     5  B    1.712129   2.281253   2.281253   2.281253   0.000000
     6  F    2.425320   2.666063   2.666063   3.305554   1.369330
     7  F    2.425320   2.666063   3.305554   2.666063   1.369330
     8  F    2.425320   3.305554   2.666063   2.666063   1.369330
                    6          7          8
     6  F    0.000000
     7  F    2.308490   0.000000
     8  F    2.308490   2.308490   0.000000
 Stoichiometry    BF3H3N
 Framework group  C3V[C3(BN),3SGV(FH)]
 Deg. of freedom     5
 Full point group                 C3V     NOp   6
 Largest Abelian subgroup         CS      NOp   2
 Largest concise Abelian subgroup CS      NOp   2
                         Standard orientation:                         
 ---------------------------------------------------------------------
 Center     Atomic      Atomic             Coordinates (Angstroms)
 Number     Number       Type             X           Y           Z
 ---------------------------------------------------------------------
      1          7           0        0.000000    0.000000    1.480748
      2          1           0       -0.827121    0.477538    1.840320
      3          1           0        0.827121    0.477538    1.840320
      4          1           0        0.000000   -0.955077    1.840320
      5          5           0        0.000000    0.000000   -0.231381
      6          9           0        0.000000    1.332807   -0.545529
      7          9           0       -1.154245   -0.666404   -0.545529
      8          9           0        1.154245   -0.666404   -0.545529
 ---------------------------------------------------------------------
 Rotational constants (GHZ):           4.8592816           4.6001184           4.6001184
 Standard basis: 6-31G(d) (6D, 7F)
 There are    52 symmetry adapted cartesian basis functions of A'  symmetry.
 There are    29 symmetry adapted cartesian basis functions of A"  symmetry.
 There are    52 symmetry adapted basis functions of A'  symmetry.
 There are    29 symmetry adapted basis functions of A"  symmetry.
    81 basis functions,   152 primitive gaussians,    81 cartesian basis functions
    21 alpha electrons       21 beta electrons
       nuclear repulsion energy       190.2981929147 Hartrees.
 NAtoms=    8 NActive=    8 NUniq=    4 SFac= 4.00D+00 NAtFMM=   60 NAOKFM=F Big=F
 Integral buffers will be    131072 words long.
 Raffenetti 2 integral format.
 Two-electron integral symmetry is turned on.
 One-electron integrals computed using PRISM.
 NBasis=    81 RedAO= T EigKep=  2.76D-03  NBF=    52    29
 NBsUse=    81 1.00D-06 EigRej= -1.00D+00 NBFU=    52    29
 Initial guess from the checkpoint file:  "D:\tools\G16W\Scratch\Gau-92380.chk"
 B after Tr=     0.000000    0.000000    0.000000
         Rot=    1.000000    0.000000    0.000000    0.000000 Ang=   0.00 deg.
 Initial guess orbital symmetries:
       Occupied  (A1) (E) (E) (A1) (A1) (A1) (E) (E) (A1) (E) (E)
                 (A1) (A1) (E) (E) (E) (E) (E) (E) (A1) (A2)
       Virtual   (A1) (E) (E) (A1) (A1) (E) (E) (A1) (E) (E) (A1)
                 (E) (E) (A1) (E) (E) (A1) (E) (E) (A1) (E) (E)
                 (A1) (E) (E) (A2) (E) (E) (A1) (A1) (E) (E) (E)
                 (E) (E) (E) (A2) (E) (E) (E) (E) (A1) (A2) (A1)
                 (A1) (E) (E) (E) (E) (A1) (E) (E) (E) (E) (A1)
                 (A1) (A1) (E) (E) (A1)
 Keep R1 ints in memory in symmetry-blocked form, NReq=12760689.
 Requested convergence on RMS density matrix=1.00D-08 within 128 cycles.
 Requested convergence on MAX density matrix=1.00D-06.
 Requested convergence on             energy=1.00D-06.
 No special actions if energy rises.
 SCF Done:  E(RB3LYP) =  -381.136521410     A.U. after    7 cycles
            NFock=  7  Conv=0.26D-08     -V/T= 2.0073
 Calling FoFJK, ICntrl=      2127 FMM=F ISym2X=1 I1Cent= 0 IOpClX= 0 NMat=1 NMatS=1 NMatT=0.
 ***** Axes restored to original set *****
 -------------------------------------------------------------------
 Center     Atomic                   Forces (Hartrees/Bohr)
 Number     Number              X              Y              Z
 -------------------------------------------------------------------
      1        7           0.000406498   -0.000000004   -0.000000003
      2        1          -0.000135828    0.000006587    0.000005438
      3        1          -0.000135828    0.000001416   -0.000008421
      4        1          -0.000135828   -0.000008000    0.000002986
      5        5           0.000181177   -0.000000002   -0.000000001
      6        9          -0.000060064    0.000041903   -0.000015634
      7        9          -0.000060064   -0.000007411    0.000044106
      8        9          -0.000060064   -0.000034490   -0.000028471
 -------------------------------------------------------------------
 Cartesian Forces:  Max     0.000406498 RMS     0.000106156

 GradGradGradGradGradGradGradGradGradGradGradGradGradGradGradGradGradGrad
 Berny optimization.
 Using GEDIIS/GDIIS optimizer.
 FormGI is forming the generalized inverse of G from B-inverse, IUseBI=4.
 Internal  Forces:  Max     0.000119571 RMS     0.000074596
 Search for a local minimum.
 Step number   6 out of a maximum of   38
 All quantities printed in internal units (Hartrees-Bohrs-Radians)
 Mixed Optimization -- En-DIIS/RFO-DIIS
 Swapping is turned off.
 Update second derivatives using D2CorX and points    1    2    3    4    5
                                                      6
 DE= -4.57D-06 DEPred=-4.24D-06 R= 1.08D+00
 TightC=F SS=  1.41D+00  RLast= 7.47D-03 DXNew= 8.4853D-01 2.2405D-02
 Trust test= 1.08D+00 RLast= 7.47D-03 DXMaxT set to 5.05D-01
 ITU=  1  1  1  1  1  0
     Eigenvalues ---    0.00230   0.05500   0.05500   0.06912   0.10599
     Eigenvalues ---    0.10599   0.12161   0.16000   0.16000   0.25000
     Eigenvalues ---    0.25000   0.34291   0.36964   0.36964   0.41897
     Eigenvalues ---    0.47019   0.47688   0.47688
 En-DIIS/RFO-DIIS/Sim-DIIS IScMMF=       -3 using points:     6    5
 RFO step:  Lambda=-9.04227821D-07.
 DidBck=F Rises=F RFO-DIIS coefs:    1.15129   -0.15129
 Iteration  1 RMS(Cart)=  0.00043102 RMS(Int)=  0.00000052
 Iteration  2 RMS(Cart)=  0.00000034 RMS(Int)=  0.00000040
 ClnCor:  largest displacement from symmetrization is 6.65D-09 for atom     3.
 Variable       Old X    -DE/DX   Delta X   Delta X   Delta X     New X
                                 (Linear)    (Quad)   (Total)
    R1        1.92851  -0.00006  -0.00014  -0.00007  -0.00021   1.92829
    R2        1.92851  -0.00006  -0.00014  -0.00007  -0.00021   1.92829
    R3        1.92851  -0.00006  -0.00014  -0.00007  -0.00021   1.92829
    R4        3.23545   0.00000   0.00057  -0.00081  -0.00023   3.23522
    R5        2.58766  -0.00003   0.00004   0.00006   0.00011   2.58776
    R6        2.58766  -0.00003   0.00004   0.00006   0.00011   2.58776
    R7        2.58766  -0.00003   0.00004   0.00006   0.00011   2.58776
    A1        1.88997   0.00012   0.00031   0.00068   0.00099   1.89096
    A2        1.88997   0.00012   0.00031   0.00068   0.00099   1.89096
    A3        1.93087  -0.00011  -0.00030  -0.00065  -0.00095   1.92992
    A4        1.88997   0.00012   0.00031   0.00068   0.00099   1.89096
    A5        1.93087  -0.00011  -0.00030  -0.00065  -0.00095   1.92992
    A6        1.93087  -0.00011  -0.00030  -0.00065  -0.00095   1.92992
    A7        1.80228   0.00012  -0.00027   0.00063   0.00037   1.80264
    A8        1.80228   0.00012  -0.00027   0.00063   0.00037   1.80264
    A9        1.80228   0.00012  -0.00027   0.00063   0.00037   1.80264
   A10        2.00540  -0.00008   0.00020  -0.00047  -0.00027   2.00513
   A11        2.00540  -0.00008   0.00020  -0.00047  -0.00027   2.00513
   A12        2.00540  -0.00008   0.00020  -0.00047  -0.00027   2.00513
    D1        1.04720   0.00000   0.00000   0.00000   0.00000   1.04720
    D2       -1.04720   0.00000   0.00000   0.00000   0.00000  -1.04720
    D3       -3.14159   0.00000   0.00000   0.00000   0.00000   3.14159
    D4       -1.04720   0.00000   0.00000   0.00000   0.00000  -1.04720
    D5       -3.14159   0.00000   0.00000   0.00000   0.00000   3.14159
    D6        1.04720   0.00000   0.00000   0.00000   0.00000   1.04720
    D7        3.14159   0.00000   0.00000   0.00000   0.00000   3.14159
    D8        1.04720   0.00000   0.00000   0.00000   0.00000   1.04720
    D9       -1.04720   0.00000   0.00000   0.00000   0.00000  -1.04720
         Item               Value     Threshold  Converged?
 Maximum Force            0.000120     0.000450     YES
 RMS     Force            0.000075     0.000300     YES
 Maximum Displacement     0.001144     0.001800     YES
 RMS     Displacement     0.000431     0.001200     YES
 Predicted change in Energy=-4.521161D-07
 Optimization completed.
    -- Stationary point found.
                           ----------------------------
                           !   Optimized Parameters   !
                           ! (Angstroms and Degrees)  !
 --------------------------                            --------------------------
 ! Name  Definition              Value          Derivative Info.                !
 --------------------------------------------------------------------------------
 ! R1    R(1,2)                  1.0205         -DE/DX =   -0.0001              !
 ! R2    R(1,3)                  1.0205         -DE/DX =   -0.0001              !
 ! R3    R(1,4)                  1.0205         -DE/DX =   -0.0001              !
 ! R4    R(1,5)                  1.7121         -DE/DX =    0.0                 !
 ! R5    R(5,6)                  1.3693         -DE/DX =    0.0                 !
 ! R6    R(5,7)                  1.3693         -DE/DX =    0.0                 !
 ! R7    R(5,8)                  1.3693         -DE/DX =    0.0                 !
 ! A1    A(2,1,3)              108.2874         -DE/DX =    0.0001              !
 ! A2    A(2,1,4)              108.2874         -DE/DX =    0.0001              !
 ! A3    A(2,1,5)              110.6306         -DE/DX =   -0.0001              !
 ! A4    A(3,1,4)              108.2874         -DE/DX =    0.0001              !
 ! A5    A(3,1,5)              110.6306         -DE/DX =   -0.0001              !
 ! A6    A(4,1,5)              110.6306         -DE/DX =   -0.0001              !
 ! A7    A(1,5,6)              103.2628         -DE/DX =    0.0001              !
 ! A8    A(1,5,7)              103.2628         -DE/DX =    0.0001              !
 ! A9    A(1,5,8)              103.2628         -DE/DX =    0.0001              !
 ! A10   A(6,5,7)              114.901          -DE/DX =   -0.0001              !
 ! A11   A(6,5,8)              114.901          -DE/DX =   -0.0001              !
 ! A12   A(7,5,8)              114.901          -DE/DX =   -0.0001              !
 ! D1    D(2,1,5,6)             60.0            -DE/DX =    0.0                 !
 ! D2    D(2,1,5,7)            -60.0            -DE/DX =    0.0                 !
 ! D3    D(2,1,5,8)            180.0            -DE/DX =    0.0                 !
 ! D4    D(3,1,5,6)            -60.0            -DE/DX =    0.0                 !
 ! D5    D(3,1,5,7)            180.0            -DE/DX =    0.0                 !
 ! D6    D(3,1,5,8)             60.0            -DE/DX =    0.0                 !
 ! D7    D(4,1,5,6)            180.0            -DE/DX =    0.0                 !
 ! D8    D(4,1,5,7)             60.0            -DE/DX =    0.0                 !
 ! D9    D(4,1,5,8)            -60.0            -DE/DX =    0.0                 !
 --------------------------------------------------------------------------------
 GradGradGradGradGradGradGradGradGradGradGradGradGradGradGradGradGradGrad

                          Input orientation:                          
 ---------------------------------------------------------------------
 Center     Atomic      Atomic             Coordinates (Angstroms)
 Number     Number       Type             X           Y           Z
[...]
                           1         2         3
     Eigenvalues --   371.40082 392.32494 392.32494
           X            0.00000   0.99520  -0.09791
           Y            0.00000   0.09791   0.99520
           Z            1.00000   0.00000   0.00000
 This molecule is a prolate symmetric top.
 Rotational symmetry number  3.
 Rotational temperatures (Kelvin)      0.23321     0.22077     0.22077
 Rotational constants (GHZ):           4.85928     4.60012     4.60012
 Zero-point vibrational energy     138175.9 (Joules/Mol)
                                   33.02483 (Kcal/Mol)
 Warning -- explicit consideration of   6 degrees of freedom as
           vibrations may cause significant error
 Vibrational temperatures:    189.80   377.66   377.66   604.80   647.60
          (Kelvin)            647.60   954.16  1158.92  1158.93  1271.73
                             1876.02  1876.02  1957.93  2438.79  2438.79
                             4968.95  5146.05  5146.06
 
 Zero-point correction=                           0.052628 (Hartree/Particle)
 Thermal correction to Energy=                    0.058267
 Thermal correction to Enthalpy=                  0.059211
 Thermal correction to Gibbs Free Energy=         0.024866
 Sum of electronic and zero-point Energies=           -381.083893
 Sum of electronic and thermal Energies=              -381.078255
 Sum of electronic and thermal Enthalpies=            -381.077311
 Sum of electronic and thermal Free Energies=         -381.111655
 
                     E (Thermal)             CV                S
                      KCal/Mol        Cal/Mol-Kelvin    Cal/Mol-Kelvin
 Total                   36.563             18.708             72.284
 Electronic               0.000              0.000              0.000
 Translational            0.889              2.981             39.235
 Rotational               0.889              2.981             23.367
 Vibrational             34.785             12.747              9.682
 Vibration     1          0.612              1.921              2.918
 Vibration     2          0.670              1.742              1.645
 Vibration     3          0.670              1.742              1.645
 Vibration     4          0.783              1.426              0.891
 Vibration     5          0.809              1.361              0.795
 Vibration     6          0.809              1.361              0.795
                       Q            Log10(Q)             Ln(Q)
 Total Bot       0.364977D-11        -11.437734        -26.336357
 Total V=0       0.588350D+13         12.769636         29.403173
 Vib (Bot)       0.415101D-23        -23.381846        -53.838691
 Vib (Bot)    1  0.154465D+01          0.188831          0.434800
 Vib (Bot)    2  0.739053D+00         -0.131325         -0.302386
 Vib (Bot)    3  0.739049D+00         -0.131327         -0.302391
 Vib (Bot)    4  0.417596D+00         -0.379243         -0.873240
 Vib (Bot)    5  0.380964D+00         -0.419116         -0.965051
 Vib (Bot)    6  0.380964D+00         -0.419117         -0.965052
 Vib (V=0)       0.669150D+01          0.825524          1.900839
 Vib (V=0)    1  0.212356D+01          0.327065          0.753095
 Vib (V=0)    2  0.139230D+01          0.143733          0.330957
 Vib (V=0)    3  0.139230D+01          0.143732          0.330955
 Vib (V=0)    4  0.115145D+01          0.061245          0.141022
 Vib (V=0)    5  0.112860D+01          0.052539          0.120975
 Vib (V=0)    6  0.112860D+01          0.052539          0.120975
 Electronic      0.100000D+01          0.000000          0.000000
 Translational   0.308191D+08          7.488820         17.243646
 Rotational      0.285293D+05          4.455292         10.258688
 ***** Axes restored to original set *****
 -------------------------------------------------------------------
 Center     Atomic                   Forces (Hartrees/Bohr)
 Number     Number              X              Y              Z
 -------------------------------------------------------------------
      1        7           0.000406509   -0.000000004   -0.000000003
      2        1          -0.000135831    0.000006589    0.000005439
      3        1          -0.000135832    0.000001417   -0.000008424
      4        1          -0.000135832   -0.000008003    0.000002987
      5        5           0.000181192   -0.000000002   -0.000000001
      6        9          -0.000060069    0.000041887   -0.000015628
      7        9          -0.000060069   -0.000007408    0.000044090
      8        9          -0.000060069   -0.000034477   -0.000028460
 -------------------------------------------------------------------
 Cartesian Forces:  Max     0.000406509 RMS     0.000106158
 FormGI is forming the generalized inverse of G from B-inverse, IUseBI=4.

 GradGradGradGradGradGradGradGradGradGradGradGradGradGradGradGradGradGrad
 Berny optimization.
 Internal  Forces:  Max     0.000119574 RMS     0.000074597
 Search for a local minimum.
 Step number   1 out of a maximum of    2
 All quantities printed in internal units (Hartrees-Bohrs-Radians)
 Second derivative matrix not updated -- analytic derivatives used.
 ITU=  0
     Eigenvalues ---    0.00070   0.03277   0.03277   0.06710   0.08191
     Eigenvalues ---    0.08191   0.10450   0.10539   0.10539   0.18694
     Eigenvalues ---    0.18694   0.36317   0.36317   0.37281   0.44687
     Eigenvalues ---    0.44848   0.44848   0.45704
 Angle between quadratic step and forces=  27.31 degrees.
 Linear search not attempted -- first point.
 Iteration  1 RMS(Cart)=  0.00056992 RMS(Int)=  0.00000056
 Iteration  2 RMS(Cart)=  0.00000049 RMS(Int)=  0.00000030
 ClnCor:  largest displacement from symmetrization is 3.44D-08 for atom     4.
 Variable       Old X    -DE/DX   Delta X   Delta X   Delta X     New X
                                 (Linear)    (Quad)   (Total)
    R1        1.92851  -0.00006   0.00000  -0.00021  -0.00021   1.92829
    R2        1.92851  -0.00006   0.00000  -0.00021  -0.00021   1.92829
    R3        1.92851  -0.00006   0.00000  -0.00021  -0.00021   1.92829
    R4        3.23545   0.00000   0.00000  -0.00060  -0.00060   3.23486
    R5        2.58766  -0.00003   0.00000   0.00003   0.00003   2.58769
    R6        2.58766  -0.00003   0.00000   0.00003   0.00003   2.58769
    R7        2.58766  -0.00003   0.00000   0.00003   0.00003   2.58769
    A1        1.88997   0.00012   0.00000   0.00117   0.00117   1.89114
    A2        1.88997   0.00012   0.00000   0.00117   0.00117   1.89114
    A3        1.93087  -0.00011   0.00000  -0.00113  -0.00113   1.92974
    A4        1.88997   0.00012   0.00000   0.00117   0.00117   1.89114
    A5        1.93087  -0.00011   0.00000  -0.00113  -0.00113   1.92974
    A6        1.93087  -0.00011   0.00000  -0.00113  -0.00113   1.92974
    A7        1.80228   0.00012   0.00000   0.00042   0.00042   1.80270
    A8        1.80228   0.00012   0.00000   0.00042   0.00042   1.80270
    A9        1.80228   0.00012   0.00000   0.00042   0.00042   1.80270
   A10        2.00540  -0.00008   0.00000  -0.00031  -0.00031   2.00509
   A11        2.00540  -0.00008   0.00000  -0.00031  -0.00031   2.00509
   A12        2.00540  -0.00008   0.00000  -0.00031  -0.00031   2.00509
    D1        1.04720   0.00000   0.00000   0.00000   0.00000   1.04720
    D2       -1.04720   0.00000   0.00000   0.00000   0.00000  -1.04720
    D3        3.14159   0.00000   0.00000   0.00000   0.00000   3.14159
    D4       -1.04720   0.00000   0.00000   0.00000   0.00000  -1.04720
    D5        3.14159   0.00000   0.00000   0.00000   0.00000   3.14159
    D6        1.04720   0.00000   0.00000   0.00000   0.00000   1.04720
    D7        3.14159   0.00000   0.00000   0.00000   0.00000   3.14159
    D8        1.04720   0.00000   0.00000   0.00000   0.00000   1.04720
    D9       -1.04720   0.00000   0.00000   0.00000   0.00000  -1.04720
         Item               Value     Threshold  Converged?
 Maximum Force            0.000120     0.000450     YES
 RMS     Force            0.000075     0.000300     YES
 Maximum Displacement     0.001490     0.001800     YES
 RMS     Displacement     0.000570     0.001200     YES
 Predicted change in Energy=-5.337317D-07
 Optimization completed.
    -- Stationary point found.
                           ----------------------------
                           !   Optimized Parameters   !
                           ! (Angstroms and Degrees)  !
 --------------------------                            --------------------------
 ! Name  Definition              Value          Derivative Info.                !
 --------------------------------------------------------------------------------
 ! R1    R(1,2)                  1.0205         -DE/DX =   -0.0001              !
 ! R2    R(1,3)                  1.0205         -DE/DX =   -0.0001              !
 ! R3    R(1,4)                  1.0205         -DE/DX =   -0.0001              !
 ! R4    R(1,5)                  1.7121         -DE/DX =    0.0                 !
 ! R5    R(5,6)                  1.3693         -DE/DX =    0.0                 !
 ! R6    R(5,7)                  1.3693         -DE/DX =    0.0                 !
 ! R7    R(5,8)                  1.3693         -DE/DX =    0.0                 !
 ! A1    A(2,1,3)              108.2874         -DE/DX =    0.0001              !
 ! A2    A(2,1,4)              108.2874         -DE/DX =    0.0001              !
 ! A3    A(2,1,5)              110.6306         -DE/DX =   -0.0001              !
 ! A4    A(3,1,4)              108.2874         -DE/DX =    0.0001              !
 ! A5    A(3,1,5)              110.6306         -DE/DX =   -0.0001              !
 ! A6    A(4,1,5)              110.6306         -DE/DX =   -0.0001              !
 ! A7    A(1,5,6)              103.2628         -DE/DX =    0.0001              !
 ! A8    A(1,5,7)              103.2628         -DE/DX =    0.0001              !
 ! A9    A(1,5,8)              103.2628         -DE/DX =    0.0001              !
 ! A10   A(6,5,7)              114.901          -DE/DX =   -0.0001              !
 ! A11   A(6,5,8)              114.901          -DE/DX =   -0.0001              !
 ! A12   A(7,5,8)              114.901          -DE/DX =   -0.0001              !
 ! D1    D(2,1,5,6)             60.0            -DE/DX =    0.0                 !
 ! D2    D(2,1,5,7)            -60.0            -DE/DX =    0.0                 !
 ! D3    D(2,1,5,8)            180.0            -DE/DX =    0.0                 !
 ! D4    D(3,1,5,6)            -60.0            -DE/DX =    0.0                 !
 ! D5    D(3,1,5,7)            180.0            -DE/DX =    0.0                 !
 ! D6    D(3,1,5,8)             60.0            -DE/DX =    0.0                 !
 ! D7    D(4,1,5,6)            180.0            -DE/DX =    0.0                 !
 ! D8    D(4,1,5,7)             60.0            -DE/DX =    0.0                 !
 ! D9    D(4,1,5,8)            -60.0            -DE/DX =    0.0                 !
 --------------------------------------------------------------------------------
 GradGradGradGradGradGradGradGradGradGradGradGradGradGradGradGradGradGrad


 ----------------------------------------------------------------------

 Electric dipole moment (input orientation):
 (Debye = 10**-18 statcoulomb cm , SI units = C m)
                  (au)            (Debye)         (10**-30 SI)
   Tot        0.235013D+01      0.597344D+01      0.199252D+02
   x          0.235013D+01      0.597344D+01      0.199252D+02
   y         -0.211400D-04     -0.537324D-04     -0.179232D-03
   z         -0.171267D-04     -0.435318D-04     -0.145206D-03

 Dipole polarizability, Alpha (input orientation).
 (esu units = cm**3 , SI units = C**2 m**2 J**-1)
 Alpha(0;0):
               (au)            (10**-24 esu)      (10**-40 SI)
   iso        0.202480D+02      0.300044D+01      0.333844D+01
   aniso      0.662943D+00      0.982380D-01      0.109305D+00
   xx         0.206899D+02      0.306593D+01      0.341131D+01
   yx         0.342013D-03      0.506811D-04      0.563903D-04
   yy         0.200272D+02      0.296772D+01      0.330204D+01
   zx        -0.134672D-03     -0.199563D-04     -0.222044D-04
   zy        -0.170641D-03     -0.252864D-04     -0.281350D-04
   zz         0.200268D+02      0.296767D+01      0.330197D+01

 ----------------------------------------------------------------------

 Dipole orientation:
     7          0.00009896          0.05558778        -11.92425020
     1          1.14904594         -1.33629705        -11.24475783
     1         -1.77978215         -0.24348707        -11.24475783
     1          0.63103310          1.74654747        -11.24475783
     5          0.00009896          0.05558778        -15.15970441
     9         -0.88036835         -2.30414303        -15.75335920
     9          2.48391944          0.47294613        -15.75335920
     9         -1.60325421          1.99796024        -15.75335920

 Electric dipole moment (dipole orientation):
 (Debye = 10**-18 statcoulomb cm , SI units = C m)
                  (au)            (Debye)         (10**-30 SI)
   Tot        0.235013D+01      0.597344D+01      0.199252D+02
   x          0.000000D+00      0.000000D+00      0.000000D+00
   y          0.000000D+00      0.000000D+00      0.000000D+00
   z          0.235013D+01      0.597344D+01      0.199252D+02

 Dipole polarizability, Alpha (dipole orientation).
 (esu units = cm**3 , SI units = C**2 m**2 J**-1)
 Alpha(0;0):
               (au)            (10**-24 esu)      (10**-40 SI)
   iso        0.202480D+02      0.300044D+01      0.333844D+01
   aniso      0.662943D+00      0.982380D-01      0.109305D+00
   xx         0.200268D+02      0.296767D+01      0.330197D+01
   yx         0.170644D-03      0.252868D-04      0.281353D-04
   yy         0.200272D+02      0.296772D+01      0.330204D+01
   zx         0.129841D-03      0.192404D-04      0.214078D-04
   zy         0.347975D-03      0.515645D-04      0.573733D-04
   zz         0.206899D+02      0.306593D+01      0.341131D+01

 ----------------------------------------------------------------------
 1|1|UNPC-KIMARIBOOK|Freq|RB3LYP|6-31G(d)|B1F3H3N1|KIMARIYB|12-Jul-2023
 |0||#N Geom=AllCheck Guess=TCheck SCRF=Check GenChk RB3LYP/6-31G(d) Fr
 eq||Title Card Required||0,1|N,-6.3100411992,0.0294725483,-0.000006119
 |H,-5.950480375,-0.7070789501,-0.6080119211|H,-5.9504638785,-0.1288027
 551,0.9418623593|H,-5.9504637027,0.9242896469,-0.3338766563|B,-8.02216
 98329,0.0294879493,0.0000063582|F,-8.3363262546,-1.2192291855,0.465920
 6489|F,-8.3363260093,0.2503591265,-1.3143705611|F,-8.3363029885,1.0573
 423844,0.8484758551||Version=EM64W-G16RevA.03|State=1-A1|HF=-381.13652
 14|RMSD=1.003e-009|RMSF=1.062e-004|ZeroPoint=0.0526284|Thermal=0.05826
 67|Dipole=2.3501318,-0.0000211,-0.0000171|DipoleDeriv=-0.8996537,0.000
 0022,0.000006,-0.0000033,-0.2618616,-0.0000047,0.000008,-0.0000047,-0.
 2618724,0.232417,0.0414136,0.0341783,0.0175488,0.1973732,-0.014884,0.0
 144864,-0.0148879,0.2031261,0.2324157,0.0089041,-0.0529533,0.0037708,0
 .2145769,0.0049574,-0.0224418,0.004961,0.1859237,0.2324069,-0.0503145,
 0.0187759,-0.0213205,0.1887955,0.0099339,0.0079546,0.0099323,0.2117047
 ,1.9033058,-0.000017,0.0000035,-0.0000367,1.6362757,0.0000434,0.000010
 9,0.0000434,1.6363758,-0.5669608,-0.1171568,0.0437141,-0.1990136,-0.83
 70298,0.154876,0.0742559,0.1548751,-0.4797292,-0.5669624,0.0207263,-0.
 1233269,0.0352064,-0.4349249,0.0772807,-0.2094999,0.0772789,-0.8818678
 ,-0.5669565,0.0964389,0.0796068,0.1638263,-0.7031948,-0.2321788,0.1352
 34,-0.2321761,-0.6136037|Polar=20.6899384,0.000342,20.0271928,-0.00013
 47,-0.0001706,20.0267991|Quadrupole=4.7285778,-2.3642889,-2.3642889,-0
 .0000638,-0.0000517,0.|PG=C03V [C3(B1N1),3SGV(F1H1)]|NImag=0||0.366423
 18,0.00000277,0.72519229,0.00000279,-0.00000035,0.72519148,-0.09200522
 ,0.10797771,0.08913267,0.08752284,0.08517717,-0.25106022,-0.15208332,-
 0.09859757,0.26308915,0.07031140,-0.15208332,-0.19236407,-0.08138985,0
 .16768702,0.19837092,-0.09200954,0.02320394,-0.13808249,0.00376602,-0.
 00353602,0.01642165,0.08752725,0.01830445,-0.07533048,0.05062637,-0.01
 342907,0.00743918,-0.02887064,-0.02118823,0.06932962,-0.10892601,0.050
 62609,-0.36808949,-0.01009233,0.00669904,-0.01813660,0.12608820,-0.055
 82036,0.39212604,-0.09200931,-0.13118474,0.04894698,0.00376613,0.01545
 406,-0.00658356,0.00376655,0.01599003,-0.00514867,0.08752730,-0.103484
 24,-0.33874130,0.10145717,-0.01245398,-0.02134342,0.01225321,-0.002025
 66,-0.00214236,-0.00116714,0.11978951,0.35976695,0.03861158,0.10145746
 ,-0.10467812,-0.01127345,-0.02331645,0.01064579,0.01667594,0.03440202,
 -0.00855578,-0.04469525,-0.11186682,0.10168865,-0.01420275,-0.00000021
 ,-0.00000033,0.00029491,0.00378016,0.00312042,0.00029438,0.00081232,-0
 .00483389,0.00029386,-0.00459264,0.00171360,0.21329139,-0.00000333,-0.
 05302180,-0.00000057,0.01979152,0.00227355,-0.00035052,0.00425336,0.00
 267845,0.00011753,-0.02404388,0.00207296,0.00023358,0.00000338,0.54686
 719,0.00000083,-0.00000057,-0.05302312,0.01633672,-0.00034952,0.002409
 78,-0.02530810,0.00011674,0.00200541,0.00897137,0.00023387,0.00261086,
 0.00000229,-0.00000104,0.54686478,-0.02539896,-0.03125566,0.01166220,0
 .00222713,-0.00037616,-0.00110083,0.00222721,0.00043684,0.00107814,-0.
 00779925,0.00091008,-0.00033952,-0.06665733,-0.05529183,0.02063008,0.0
 6888336,-0.02107680,-0.00965427,0.00633567,-0.00213359,-0.00158017,0.0
 0085447,-0.00015375,-0.00162930,0.00029982,-0.00174326,0.00155142,-0.0
 0029050,-0.04270840,-0.24632751,0.06880844,0.07602329,0.32037692,0.007
 86435,0.00633578,0.00496171,-0.00222647,0.00035650,-0.00029779,0.00307
 985,0.00079777,-0.00024874,0.00065051,-0.00029048,0.00088138,0.0159350
 5,0.06880857,-0.08758438,-0.02836529,-0.09781475,0.09471578,-0.0253991
 3,0.00552885,-0.03289889,0.00222731,-0.00115235,-0.00016088,-0.0077992
 5,-0.00016093,0.00095793,0.00222721,0.00114139,0.00022465,-0.06665759,
 0.00978013,-0.05819968,0.01325884,-0.00292942,0.00467798,0.06888333,0.
 00372856,0.00679451,0.00316159,-0.00259040,-0.00011847,0.00007449,0.00
 030842,0.00079735,-0.00014497,0.00299493,-0.00009410,0.00050152,0.0075
 5404,-0.06768092,0.03433477,0.00403817,-0.01248338,0.03849825,-0.01344
 678,0.06642154,-0.02218616,0.00316174,-0.01148633,-0.00167267,0.000571
 89,-0.00175979,-0.00183494,-0.00014499,0.00163545,-0.00073452,0.000003
 57,-0.00178394,-0.04495421,0.03433484,-0.26623111,-0.00376272,0.026877
 97,-0.02509921,0.08002066,-0.04880831,0.34867119,-0.02539817,0.0257274
 7,0.02123718,-0.00779923,-0.00074900,-0.00061822,0.00222737,-0.0007653
 7,0.00087633,0.00222737,0.00071543,-0.00091755,-0.06665579,0.04550989,
 0.03756707,0.01325881,-0.00527825,-0.00161593,0.01325881,-0.00258676,-
 0.00487644,0.06888053,0.01734996,-0.00417924,-0.00949689,0.00143506,0.
 00130046,0.00043535,-0.00086168,-0.00114262,-0.00060950,0.00274370,-0.
 00106964,-0.00112100,0.03515162,-0.18686102,-0.10314271,0.00551520,-0.
 05025399,-0.01669148,0.00123934,0.00636351,-0.01599663,-0.06257276,0.2
 3584202,0.01432190,-0.00949715,-0.00051355,0.00118462,0.00043540,0.001
 13232,0.00296060,-0.00110692,-0.00073570,-0.00140704,-0.00062358,-0.00
 080868,0.02901698,-0.10314292,-0.14705282,0.00019792,-0.00507100,0.012
 67142,0.00537779,-0.02761711,-0.04394608,-0.05165234,0.14662305,0.1792
 5351||-0.00040651,0.,0.,0.00013583,-0.00000659,-0.00000544,0.00013583,
 -0.00000142,0.00000842,0.00013583,0.00000800,-0.00000299,-0.00018119,0
 .,0.,0.00006007,-0.00004189,0.00001563,0.00006007,0.00000741,-0.000044
 09,0.00006007,0.00003448,0.00002846|||@


 IT IS UNWORTHY OF EXCELLENT MEN TO LOSE HOURS LIKE SLAVES IN THE LABOR
 OF CALCULATION WHICH COULD BE SAFELY RELEGATED TO ANYONE ELSE
 IF A MACHINE WERE USED.
    -- G.W. VON LEIBNIZ
 Job cpu time:       0 days  0 hours  0 minutes 11.0 seconds.
 Elapsed time:       0 days  0 hours  0 minutes 10.2 seconds.
 File lengths (MBytes):  RWF=     10 Int=      0 D2E=      0 Chk=      2 Scr=      1
 Normal termination of Gaussian 16 at Wed Jul 12 15:18:35 2023.
